/home/piero/bin/CRY06/Pcrystal
/scr/piero/CRY_data/tmp_p4482
QUARTZ ALFA (init. geom.: expt.)  HF base 2d
CRYSTAL
0 0 2
154
0 0 16
4.91457896     5.40485895
2
14     4.705925485842E-01  7.248269291405E-17  0.000000000000E+00
 8     4.151440131428E-01  2.670973406544E-01  1.199927007933E-01
OPTGEOM
END
END
14 6
2 0 6 2.0 1.0
2 1 6 8.0 1.0
2 1 2 4.0 1.0
0 1 1 0.0 1.0
0.09 1. 1.
0 3 1 0. 1.
2.56 1.
0 3 1 0. 1.
0.54 1.
8 5
0 0 6 2.0 1.0
0.5484671660D+04  0.1831074430D-02
0.8252349460D+03  0.1395017220D-01
0.1880469580D+03  0.6844507810D-01
0.5296450000D+02  0.2327143360D+00
0.1689757040D+02  0.4701928980D+00
0.5799635340D+01  0.3585208530D+00
0 1   3 6.0 1.00
0.1553961625D+02 -0.1107775490D+00  0.7087426820D-01
0.3599933586D+01 -0.1480262620D+00  0.3397528390D+00
0.1013761750D+01  0.1130767010D+01  0.7271585770D+00
0 1   1 0.0 1.00
0.29  0.1000000000D+01  0.1000000000D+01
0 3  1 0. 1.
2.00 1.
0 3  1 0. 1.
0.41 1.
99   0
END
SCFDIR
SHRINK
3 3
FMIXING
30
LEVSHIFT
4 1
MAXCYCLE
200
END

Tue Feb 23 12:20:47 GMT 2010
directory scratch (integrals and temporary files) /home/piero/bin/CRY06_tmp
 PROCESS            0  OF            2  WORKING

         
 *******************************************************************************
 *                                                                             *
 *                                CRYSTAL06                                    *
 *                              Release : 1.0                                  *
 *                      V1.0.2 - parallel executable                           *
 *                                                                             *
 *                                                                             *
 *                                                                             *
 *                              MAIN AUTHORS                                   *
 *                                                                             *
 *    R. DOVESI(1,10), V.R. SAUNDERS(2), C. ROETTI(1,10), R. ORLANDO (1,3),    *
 *  C.M. ZICOVICH-WILSON(1,4), F. PASCALE(5), B. CIVALLERI(1,10), K. DOLL(6),  *
 *       N.M. HARRISON(2,7), I. J. BUSH(2), Ph. D'ARCO(8), M. LLUNELL(9)       *
 *                                                                             *
 * (1) THEORETICAL CHEMISTRY GROUP - UNIVERSITA' DI TORINO - TORINO (ITALY)    *
 *      http://www.crystal.unito.it                                            *
 * (2) COMPUTATIONAL SCIENCE & ENGINEERING DEPARTMENT - CCLRC DARESBURY (UK)   *
 *     http://www.cse.clrc.ac.uk/cmg/CRYSTAL/                                  *
 * (3) UNIVERSITA' DEL PIEMONTE ORIENTALE - ALESSANDRIA (ITALY)                *
 * (4) UNIVERSIDAD AUTONOMA DEL ESTADO DE MORELOS - CUERNAVACA (MEXICO)        *
 * (5) UNIVERSITE' HENRI POINCARE' - NANCY (FRANCE)                            *
 * (6) MPI FUER FESTKOERPERFORSCHUNG - STUTTGART (GERMANY)                     *
 * (7) IMPERIAL COLLEGE - LONDON (UK)                                          *
 * (8) UNIVERSITE' PIERRE ET MARIE CURIE - PARIS (FRANCE)                      *
 * (9) UNIVERSIDAD DE BARCELONA - BARCELONA (SPAIN)                            *
 *(10) NIS - NANOSTRUCTURED INTERFACES AND SURFACES - TORINO (ITALY)           *
 *     http://www.crystal.unito.it                                             *
 *******************************************************************************
 EEEEEEEEEE STARTING  DATE 23 02 2010 TIME 12:20:49.1
 QUARTZ ALFA (init. geom.: expt.)  HF base 2d                                    

 CRYSTAL CALCULATION
 (INPUT ACCORDING TO THE INTERNATIONAL TABLES FOR X-RAY CRYSTALLOGRAPHY)
 CRYSTAL FAMILY                       :  HEXAGONAL   
 CRYSTAL CLASS  (GROTH - 1921)        :  TRIGONAL TRAPEZOHEDRAL               

 SPACE GROUP (NONCENTROSYMMETRIC)     :  P 32 2 1        

 SHIFT OF THE ORIGIN                  :      0      0    2/3

 LATTICE PARAMETERS  (ANGSTROMS AND DEGREES) - CONVENTIONAL CELL
        A           B           C        ALPHA        BETA       GAMMA
     4.91458     4.91458     5.40486    90.00000    90.00000   120.00000


 NUMBER OF IRREDUCIBLE ATOMS IN THE CONVENTIONAL CELL:    2

 INPUT COORDINATES

 ATOM AT. N.              COORDINATES
   1  14     4.705925485842E-01  7.248269291405E-17  0.000000000000E+00
   2   8     4.151440131428E-01  2.670973406544E-01  1.199927007933E-01

 *******************************************************************************

 << INFORMATION >>: FROM NOW ON, ALL COORDINATES REFER TO THE PRIMITIVE CELL

 *******************************************************************************

 LATTICE PARAMETERS  (ANGSTROMS AND DEGREES) - PRIMITIVE CELL
       A          B          C         ALPHA     BETA     GAMMA        VOLUME
    4.91458    4.91458    5.40486    90.00000  90.00000 120.00000    113.054442

 COORDINATES OF THE EQUIVALENT ATOMS (FRACTIONARY UNITS)

 N. ATOM EQUIV AT. N.          X                  Y                  Z

   1   1   1   14 SI    4.70592548584E-01  7.24826929140E-17  0.00000000000E+00
   2   1   2   14 SI   -7.24826929140E-17  4.70592548584E-01 -3.33333333333E-01
   3   1   3   14 SI   -4.70592548584E-01 -4.70592548584E-01  3.33333333333E-01

   4   2   1    8 O     4.15144013143E-01  2.67097340654E-01  1.19992700793E-01
   5   2   2    8 O    -2.67097340654E-01  1.48046672488E-01 -2.13340632540E-01
   6   2   3    8 O    -1.48046672488E-01 -4.15144013143E-01  4.53326034127E-01
   7   2   4    8 O     1.48046672488E-01 -2.67097340654E-01 -1.19992700793E-01
   8   2   5    8 O    -4.15144013143E-01 -1.48046672488E-01  2.13340632540E-01
   9   2   6    8 O     2.67097340654E-01  4.15144013143E-01 -4.53326034127E-01

 NUMBER OF SYMMETRY OPERATORS         :    6
 *******************************************************************************
 * GEOMETRY EDITING - INPUT COORDINATES ARE GIVEN IN ANGSTROM          
 *******************************************************************************

 GEOMETRY NOW FULLY CONSISTENT WITH THE GROUP
 *******************************************************************************
 ATOMIC POSITIONS OPTIMIZATION CONTROL

 MAXIMUM GRADIENT COMPONENT   0.00045 MAXIMUM DISPLACEMENT COMPONENT     0.00030
 R.M.S. OF GRADIENT COMPONENT 0.00180 R.M.S. OF DISPLACEMENT COMPONENTS  0.00120
 THRESHOLD ON ENERGY CHANGE 0.100E-06 EXTRAPOLATING POLYNOMIAL ORDER           2
 MAXIMUM ALLOWED NUMBER OF STEPS  100 SORTING OF ENERGY POINTS:               NO
 ANALYTICAL  GRADIENT                 HESSIAN UPDATING                      BFGS
 STEP SIZE NUMERICAL GRADIENT 0.00100
 INITIAL HESSIAN MATRIX: SCHLEGEL MODEL 2
 *******************************************************************************


 GCALCO - MAX INDICES DIRECT LATTICE VECTOR  16  16  12
 NO.OF VECTORS CREATED 6999 STARS  380 RMAX   108.01313 BOHR

 GEOMETRY FOR WAVE FUNCTION - DIMENSIONALITY OF THE SYSTEM    3
 (NON PERIODIC DIRECTION: LATTICE PARAMETER FORMALLY SET TO 500)
 *******************************************************************************
 LATTICE PARAMETERS (ANGSTROMS AND DEGREES) - BOHR = 0.5291772083 ANGSTROM
 PRIMITIVE CELL - CENTRING CODE 1/0 VOLUME=   113.054442 - DENSITY 2.642 g/cm^3
         A              B              C           ALPHA      BETA       GAMMA 
     4.91457896     4.91457896     5.40485895    90.000000  90.000000 120.000000
 *******************************************************************************
 ATOMS IN THE ASYMMETRIC UNIT    2 - ATOMS IN THE UNIT CELL:    9
     ATOM              X/A                 Y/B                 Z/C    
 *******************************************************************************
   1 T  14 SI    4.705925485842E-01  5.551115123126E-17  0.000000000000E+00
   2 F  14 SI    0.000000000000E+00  4.705925485842E-01 -3.333333333333E-01
   3 F  14 SI   -4.705925485842E-01 -4.705925485842E-01  3.333333333333E-01
   4 T   8 O     4.151440131428E-01  2.670973406544E-01  1.199927007933E-01
   5 F   8 O    -2.670973406544E-01  1.480466724884E-01 -2.133406325400E-01
   6 F   8 O    -1.480466724884E-01 -4.151440131428E-01  4.533260341266E-01
   7 F   8 O     1.480466724884E-01 -2.670973406544E-01 -1.199927007933E-01
   8 F   8 O    -4.151440131428E-01 -1.480466724884E-01  2.133406325400E-01
   9 F   8 O     2.670973406544E-01  4.151440131428E-01 -4.533260341266E-01

 T = ATOM BELONGING TO THE ASYMMETRIC UNIT

 ****   6 SYMMOPS - TRANSLATORS IN FRACTIONARY UNITS
  V INV                   ROTATION MATRICES                       TRANSLATOR
  1  1  1.00  0.00  0.00  0.00  1.00  0.00  0.00  0.00  1.00    0.00  0.00  0.00
  2  3  0.00 -1.00  0.00  1.00 -1.00  0.00  0.00  0.00  1.00    0.00  0.00  0.67
  3  2 -1.00  1.00  0.00 -1.00  0.00  0.00  0.00  0.00  1.00    0.00  0.00  0.33
  4  4  1.00 -1.00  0.00  0.00 -1.00  0.00  0.00  0.00 -1.00    0.00  0.00  0.00
  5  5 -1.00  0.00  0.00 -1.00  1.00  0.00  0.00  0.00 -1.00    0.00  0.00  0.33
  6  6  0.00  1.00  0.00  1.00  0.00  0.00  0.00  0.00 -1.00    0.00  0.00  0.67

 DIRECT LATTICE VECTORS CARTESIAN COMPONENTS (ANGSTROM)
          X                    Y                    Z
   0.425615022826E+01  -0.245728948000E+01   0.000000000000E+00
   0.000000000000E+00   0.491457896000E+01   0.000000000000E+00
   0.000000000000E+00   0.000000000000E+00   0.540485895000E+01


 CARTESIAN COORDINATES - PRIMITIVE CELL
 *******************************************************************************
 *      ATOM          X(ANGSTROM)         Y(ANGSTROM)         Z(ANGSTROM)
 *******************************************************************************
   1    14 SI    2.002912583076E+00 -1.156382119002E+00  0.000000000000E+00
   2    14 SI    0.000000000000E+00  2.312764238005E+00 -1.801619650000E+00
   3    14 SI   -2.002912583076E+00 -1.156382119002E+00  1.801619650000E+00
   4     8 O     1.766915286300E+00  2.925419544713E-01  6.485436228173E-01
   5     8 O    -1.136806407395E+00  1.383922547036E+00 -1.153076027183E+00
   6     8 O    -6.301088789053E-01 -1.676464501507E+00  2.450163272817E+00
   7     8 O     6.301088789053E-01 -1.676464501507E+00 -6.485436228173E-01
   8     8 O    -1.766915286300E+00  2.925419544713E-01  1.153076027183E+00
   9     8 O     1.136806407395E+00  1.383922547036E+00 -2.450163272817E+00

 *******************************************************************************
 LOCAL ATOMIC FUNCTIONS BASIS SET
 *******************************************************************************
   ATOM  X(AU)  Y(AU)  Z(AU)    NO. TYPE  EXPONENT  S COEF   P COEF   D/F/G COEF
 *******************************************************************************
   1 SI  3.785 -2.185  0.000
                                  1 S  
                                         1.612E+04 1.959E-03 0.000E+00 0.000E+00
                                         2.426E+03 1.493E-02 0.000E+00 0.000E+00
                                         5.539E+02 7.285E-02 0.000E+00 0.000E+00
                                         1.563E+02 2.461E-01 0.000E+00 0.000E+00
                                         5.007E+01 4.859E-01 0.000E+00 0.000E+00
                                         1.702E+01 3.250E-01 0.000E+00 0.000E+00
                             2-   5 SP 
                                         2.927E+02-2.781E-03 4.438E-03 0.000E+00
                                         6.987E+01-3.571E-02 3.267E-02 0.000E+00
                                         2.234E+01-1.150E-01 1.347E-01 0.000E+00
                                         8.150E+00 9.356E-02 3.287E-01 0.000E+00
                                         3.135E+00 6.030E-01 4.496E-01 0.000E+00
                                         1.225E+00 4.190E-01 2.614E-01 0.000E+00
                             6-   9 SP 
                                         1.079E+00-3.761E-01 6.710E-02 0.000E+00
                                         3.024E-01 1.252E+00 9.569E-01 0.000E+00
                            10-  13 SP 
                                         9.000E-02 1.000E+00 1.000E+00 0.000E+00
                            14-  18 D  
                                         2.560E+00 0.000E+00 0.000E+00 1.000E+00
                            19-  23 D  
                                         5.400E-01 0.000E+00 0.000E+00 1.000E+00
   2 SI  0.000  4.370 -3.405
   3 SI -3.785 -2.185  3.405
   4 O   3.339  0.553  1.226
                                 70 S  
                                         5.485E+03 1.831E-03 0.000E+00 0.000E+00
                                         8.252E+02 1.395E-02 0.000E+00 0.000E+00
                                         1.880E+02 6.845E-02 0.000E+00 0.000E+00
                                         5.296E+01 2.327E-01 0.000E+00 0.000E+00
                                         1.690E+01 4.702E-01 0.000E+00 0.000E+00
                                         5.800E+00 3.585E-01 0.000E+00 0.000E+00
                            71-  74 SP 
                                         1.554E+01-1.108E-01 7.087E-02 0.000E+00
                                         3.600E+00-1.480E-01 3.398E-01 0.000E+00
                                         1.014E+00 1.131E+00 7.272E-01 0.000E+00
                            75-  78 SP 
                                         2.900E-01 1.000E+00 1.000E+00 0.000E+00
                            79-  83 D  
                                         2.000E+00 0.000E+00 0.000E+00 1.000E+00
                            84-  88 D  
                                         4.100E-01 0.000E+00 0.000E+00 1.000E+00
   5 O  -2.148  2.615 -2.179
   6 O  -1.191 -3.168  4.630
   7 O   1.191 -3.168 -1.226
   8 O  -3.339  0.553  2.179
   9 O   2.148  2.615 -4.630
 INFORMATION **** READM2 **** FULL DIRECT SCF (MONO AND BIEL INT) SELECTED
 INFORMATION **** MAXCYCLE **** MAX NUMBER OF SCF CYCLES SET TO       200
 *******************************************************************************
 N. OF ATOMS PER CELL        9  COULOMB OVERLAP TOL         (T1) 10** -6
 NUMBER OF SHELLS           48  COULOMB PENETRATION TOL     (T2) 10** -6
 NUMBER OF AO              183  EXCHANGE OVERLAP TOL        (T3) 10** -6
 N. OF ELECTRONS PER CELL   90  EXCHANGE PSEUDO OVP (F(G))  (T4) 10** -6
 CORE ELECTRONS PER CELL    42  EXCHANGE PSEUDO OVP (P(G))  (T5) 10**-12
 N. OF SYMMETRY OPERATORS    6  POLE ORDER IN MONO ZONE                4
 *******************************************************************************
 TYPE OF CALCULATION :  RESTRICTED CLOSED SHELL
 HARTREE-FOCK HAMILTONIAN
 EIGENVALUE LEVEL SHIFTING OF  0.400 HARTREE
 LOCKING - FERMI ENERGY ALTERED BY LEVEL SHIFTER

 CAPPA: IS1=  3 IS2=  3 IS3=  3K POINTS MONKHORST NET    7 SYMMOPS K SPACE 12 SYMMOPS G SPACE  6


 CAPPA1: ISJ1=  3 ISJ2=  3 ISJ3=  3K POINTS GILAT NET    7 SYMMOPS K SPACE 12 SYMMOPS G SPACE  6

 *******************************************************************************
 MAX NUMBER OF SCF CYCLES     200  CONVERGENCE ON DELTAP        10**-16
 WEIGHT OF F(I) IN F(I+1)      30% CONVERGENCE ON ENERGY        10**- 7
 EIGENVALUE LEVEL SHIFTING OF  0.400 HARTREE
 LOCKING - FERMI ENERGY ALTERED BY LEVEL SHIFTER
 SHRINK. FACT.(MONKH.)    3  3  3  NUMBER OF K POINTS IN THE IBZ      7
 SHRINKING FACTOR(GILAT NET)    3  NUMBER OF K POINTS(GILAT NET)      7
 *******************************************************************************
 *** K POINTS COORDINATES (OBLIQUE COORDINATES IN UNITS OF IS =  3)
   1-R(  0  0  0)   2-C(  1  0  0)   3-C(  1  1  0)   4-C(  0  0  1)
   5-C(  1  0  1)   6-C(  2  0  1)   7-C(  1  1  1)

 DIRECT LATTICE VECTORS COMPON. (A.U.)     RECIP. LATTICE VECTORS COMPON. (A.U.) 
        X            Y            Z              X            Y            Z
    8.0429583   -4.6436041    0.0000000      0.7812033    0.0000000    0.0000000
    0.0000000    9.2872083    0.0000000      0.3906016    0.6765419    0.0000000
    0.0000000    0.0000000   10.2137032      0.0000000    0.0000000    0.6151721

 DISK SPACE FOR EIGENVECTORS (FTN 10)     435357 REALS

 SYMMETRY ADAPTION OF THE BLOCH FUNCTIONS ENABLED
 TTTTTTTTTTTTTTTTTTTTTTTTTTTTTT gordsh1     TELAPSE        0.71 TCPU        0.02

 DIMENSIONS  P(G)=  300285 F(G)=   50868 P(G),F(G) (IRR)   27704
 MAX G-VECTOR INDEX FOR 1- AND 2-ELECTRON INTEGRALS 187

 TTTTTTTTTTTTTTTTTTTTTTTTTTTTTT INPUT       TELAPSE        0.72 TCPU        0.02

 NEIGHBORS OF THE NON-EQUIVALENT ATOMS

 N = NUMBER OF NEIGHBORS AT DISTANCE R
    ATOM  N     R/ANG      R/AU   NEIGHBORS (ATOM LABELS AND CELL INDICES)
   1 SI   2     1.6049     3.0328   4 O    0 0 0   7 O    0 0 0
   1 SI   2     1.6071     3.0371   5 O    1 0 0   8 O    1 0 0
   1 SI   4     3.0572     5.7774   2 SI   1 0 0   2 SI   0-1 0   3 SI   1 1 0
                                    3 SI   1 0 0
   1 SI   2     3.5200     6.6519   6 O    1 1 0   9 O    0-1 0
   1 SI   2     3.5337     6.6777   4 O    0-1 0   7 O    1 1 0
   1 SI   2     3.6341     6.8674   6 O    0 0 0   9 O    0 0 0

   4 O    1     1.6049     3.0328   1 SI   0 0 0
   4 O    1     1.6071     3.0371   3 SI   1 1 0
   4 O    2     2.6105     4.9331   8 O    1 1 0   8 O    1 0 0
   4 O    1     2.6176     4.9465   7 O    0 0 0
   4 O    1     2.6280     4.9662   9 O    0 0 1
   4 O    2     2.6345     4.9785   5 O    1 0 0   6 O    1 1 0


 SYMMETRY ALLOWED INTERNAL DEGREE(S) OF FREEDOM:   4
 TTTTTTTTTTTTTTTTTTTTTTTTTTTTTT SYMM        TELAPSE        0.73 TCPU        0.03
 TTTTTTTTTTTTTTTTTTTTTTTTTTTTTT INT_SCREEN  TELAPSE        0.73 TCPU        0.03
 *******************************************************************************
 COORDINATE OPTIMIZATION - POINT    1
crystal executable from directory /home/piero/bin/CRY06
test cases input: extensions .d12 , .d3
CRY2K6_GRA graphical scripts /home/piero/bin/CRY06/crgra2006/maps06, doss06, band06
CRY2K6_UTILS miscellanea utilities /home/piero/bin/CRY06/utils06/runcry06 runprop06 spacg
 PROCESS            1  OF            2  WORKING
 INFORMATION **** EXCBUF **** EXCH. BIPO BUFFER: WORDS USED =    360000
 WARNING **** EXCBUF **** EXCH. BIPO BUFFER TOO SMALL - TO AVOID I/O SET EXCHSIZE =    916110
 TTTTTTTTTTTTTTTTTTTTTTTTTTTTTT INT_CALC    TELAPSE        0.95 TCPU        0.18

 *******************************************************************************
 QUARTZ ALFA (init. geom.: expt.)  HF base 2d                                    
 CRYSTAL - SCF - TYPE OF CALCULATION :  RESTRICTED CLOSED SHELL
 *******************************************************************************

 CAPPA: IS1=  3 IS2=  3 IS3=  3K POINTS MONKHORST NET    7 SYMMOPS K SPACE 12 SYMMOPS G SPACE  6


 CAPPA1: ISJ1=  3 ISJ2=  3 ISJ3=  3K POINTS GILAT NET    7 SYMMOPS K SPACE 12 SYMMOPS G SPACE  6

 TTTTTTTTTTTTTTTTTTTTTTTTTTTTTT SDIK        TELAPSE        1.03 TCPU        0.26

 AAAAAAAAAAAAAAAAAAAAAAAAAAAAAAAAAAAAAAAAAAAAAAAAAAAAAAAAAAAAAAAAAAAAAAAAAAAAAAA
         ATOMIC WAVEFUNCTION(S)


 NUCLEAR CHARGE 14.0  SYMMETRY SPECIES            S    P
 N. ELECTRONS   14.0  NUMBER OF PRIMITIVE GTOS   15    9
                      NUMBER OF CONTRACTED GTOS   4    3
                      NUMBER OF CLOSED SHELLS     3    1
                      OPEN SHELL OCCUPATION       0    2

  ZNUC SCFIT  TOTAL HF ENERGY   KINETIC ENERGY   VIRIAL THEOREM ACCURACY
  14.0  11   -2.888251470E+02  2.888201519E+02 -2.000017295E+00  3.5E-06

 NUCLEAR CHARGE  8.0  SYMMETRY SPECIES            S    P
 N. ELECTRONS    8.0  NUMBER OF PRIMITIVE GTOS   10    4
                      NUMBER OF CONTRACTED GTOS   3    2
                      NUMBER OF CLOSED SHELLS     2    0
                      OPEN SHELL OCCUPATION       0    4

  ZNUC SCFIT  TOTAL HF ENERGY   KINETIC ENERGY   VIRIAL THEOREM ACCURACY
   8.0  12   -7.477553241E+01  7.466605824E+01 -2.001466184E+00  1.9E-06

 AAAAAAAAAAAAAAAAAAAAAAAAAAAAAAAAAAAAAAAAAAAAAAAAAAAAAAAAAAAAAAAAAAAAAAAAAAAAAAA

 CHARGE NORMALIZATION FACTOR   1.00000000
 TOTAL ATOMIC CHARGES:
  14.0000000  14.0000000  14.0000000   8.0000000   8.0000000   8.0000000
   8.0000000   8.0000000   8.0000000
 TTTTTTTTTTTTTTTTTTTTTTTTTTTTTT MOQGAD      TELAPSE        1.46 TCPU        0.41
 TTTTTTTTTTTTTTTTTTTTTTTTTTTTTT SHELLX      TELAPSE      123.93 TCPU       60.41
 TTTTTTTTTTTTTTTTTTTTTTTTTTTTTT MONMO3      TELAPSE      124.68 TCPU       60.86
 CYC   0 ETOT(AU) -1.319370012173E+03 DETOT -1.32E+03 tst  0.00E+00 PX  1.00E+00
 TTTTTTTTTTTTTTTTTTTTTTTTTTTTTT FDIK        TELAPSE      129.38 TCPU       62.18
 INSULATING STATE - TOP OF VALENCE BANDS (A.U.) -4.7755174E-01
 TTTTTTTTTTTTTTTTTTTTTTTTTTTTTT PDIG        TELAPSE      132.12 TCPU       62.27
 CHARGE NORMALIZATION FACTOR   1.00000000
 TOTAL ATOMIC CHARGES:
  12.0993150  12.0993150  12.0993150   8.9503425   8.9503425   8.9503425
   8.9503425   8.9503425   8.9503425
 TTTTTTTTTTTTTTTTTTTTTTTTTTTTTT MOQGAD      TELAPSE      132.40 TCPU       62.42
 TTTTTTTTTTTTTTTTTTTTTTTTTTTTTT SHELLX      TELAPSE      260.96 TCPU      127.42
 TTTTTTTTTTTTTTTTTTTTTTTTTTTTTT MONMO3      TELAPSE      261.91 TCPU      127.87
 CYC   1 ETOT(AU) -1.316548634807E+03 DETOT  2.82E+00 tst  0.00E+00 PX  1.00E+00
 TTTTTTTTTTTTTTTTTTTTTTTTTTTTTT FDIK        TELAPSE      265.40 TCPU      128.41
 INSULATING STATE - TOP OF VALENCE BANDS (A.U.) -8.1924915E-01
 TTTTTTTTTTTTTTTTTTTTTTTTTTTTTT PDIG        TELAPSE      268.08 TCPU      128.50
 CHARGE NORMALIZATION FACTOR   1.00000000
 TOTAL ATOMIC CHARGES:
  12.2000175  12.2000175  12.2000175   8.8999913   8.8999913   8.8999913
   8.8999913   8.8999913   8.8999913
 TTTTTTTTTTTTTTTTTTTTTTTTTTTTTT MOQGAD      TELAPSE      268.36 TCPU      128.65
 TTTTTTTTTTTTTTTTTTTTTTTTTTTTTT SHELLX      TELAPSE      396.04 TCPU      193.87
 TTTTTTTTTTTTTTTTTTTTTTTTTTTTTT MONMO3      TELAPSE      399.46 TCPU      194.31
 CYC   2 ETOT(AU) -1.316681382361E+03 DETOT -1.33E-01 tst  1.42E-03 PX  6.51E-02
 TTTTTTTTTTTTTTTTTTTTTTTTTTTTTT FDIK        TELAPSE      400.25 TCPU      194.81
 INSULATING STATE - TOP OF VALENCE BANDS (A.U.) -8.3717323E-01
 TTTTTTTTTTTTTTTTTTTTTTTTTTTTTT PDIG        TELAPSE      400.45 TCPU      194.91
 CHARGE NORMALIZATION FACTOR   1.00000000
 TOTAL ATOMIC CHARGES:
  12.2029127  12.2029127  12.2029127   8.8985437   8.8985437   8.8985437
   8.8985437   8.8985437   8.8985437
 TTTTTTTTTTTTTTTTTTTTTTTTTTTTTT MOQGAD      TELAPSE      400.73 TCPU      195.06
 TTTTTTTTTTTTTTTTTTTTTTTTTTTTTT SHELLX      TELAPSE      528.50 TCPU      260.26
 TTTTTTTTTTTTTTTTTTTTTTTTTTTTTT MONMO3      TELAPSE      531.65 TCPU      260.71
 CYC   3 ETOT(AU) -1.316697056684E+03 DETOT -1.57E-02 tst  1.11E-03 PX  2.09E-02
 TTTTTTTTTTTTTTTTTTTTTTTTTTTTTT FDIK        TELAPSE      532.43 TCPU      261.18
 INSULATING STATE - TOP OF VALENCE BANDS (A.U.) -8.4627324E-01
 TTTTTTTTTTTTTTTTTTTTTTTTTTTTTT PDIG        TELAPSE      532.62 TCPU      261.26
 CHARGE NORMALIZATION FACTOR   1.00000000
 TOTAL ATOMIC CHARGES:
  12.1778085  12.1778085  12.1778085   8.9110958   8.9110958   8.9110958
   8.9110958   8.9110958   8.9110958
 TTTTTTTTTTTTTTTTTTTTTTTTTTTTTT MOQGAD      TELAPSE      532.90 TCPU      261.41
 TTTTTTTTTTTTTTTTTTTTTTTTTTTTTT SHELLX      TELAPSE      665.92 TCPU      326.07
 TTTTTTTTTTTTTTTTTTTTTTTTTTTTTT MONMO3      TELAPSE      666.87 TCPU      326.52
 CYC   4 ETOT(AU) -1.316701112451E+03 DETOT -4.06E-03 tst  3.74E-04 PX  1.25E-02
 TTTTTTTTTTTTTTTTTTTTTTTTTTTTTT FDIK        TELAPSE      667.50 TCPU      327.04
 INSULATING STATE - TOP OF VALENCE BANDS (A.U.) -8.4679835E-01
 TTTTTTTTTTTTTTTTTTTTTTTTTTTTTT PDIG        TELAPSE      667.61 TCPU      327.14
 CHARGE NORMALIZATION FACTOR   1.00000000
 TOTAL ATOMIC CHARGES:
  12.1602898  12.1602898  12.1602898   8.9198551   8.9198551   8.9198551
   8.9198551   8.9198551   8.9198551
 TTTTTTTTTTTTTTTTTTTTTTTTTTTTTT MOQGAD      TELAPSE      667.76 TCPU      327.29
 TTTTTTTTTTTTTTTTTTTTTTTTTTTTTT SHELLX      TELAPSE      777.57 TCPU      392.14
 TTTTTTTTTTTTTTTTTTTTTTTTTTTTTT MONMO3      TELAPSE      778.02 TCPU      392.60
 CYC   5 ETOT(AU) -1.316702255049E+03 DETOT -1.14E-03 tst  8.57E-05 PX  7.06E-03
 TTTTTTTTTTTTTTTTTTTTTTTTTTTTTT FDIK        TELAPSE      780.60 TCPU      393.08
 INSULATING STATE - TOP OF VALENCE BANDS (A.U.) -8.4591448E-01
 TTTTTTTTTTTTTTTTTTTTTTTTTTTTTT PDIG        TELAPSE      780.80 TCPU      393.17
 CHARGE NORMALIZATION FACTOR   1.00000000
 TOTAL ATOMIC CHARGES:
  12.1508596  12.1508596  12.1508596   8.9245702   8.9245702   8.9245702
   8.9245702   8.9245702   8.9245702
 TTTTTTTTTTTTTTTTTTTTTTTTTTTTTT MOQGAD      TELAPSE      781.08 TCPU      393.32
 TTTTTTTTTTTTTTTTTTTTTTTTTTTTTT SHELLX      TELAPSE      909.15 TCPU      458.52
 TTTTTTTTTTTTTTTTTTTTTTTTTTTTTT MONMO3      TELAPSE      911.80 TCPU      458.99
 CYC   6 ETOT(AU) -1.316702603165E+03 DETOT -3.48E-04 tst  1.82E-05 PX  3.95E-03
 TTTTTTTTTTTTTTTTTTTTTTTTTTTTTT FDIK        TELAPSE      912.64 TCPU      459.48
 INSULATING STATE - TOP OF VALENCE BANDS (A.U.) -8.4539966E-01
 TTTTTTTTTTTTTTTTTTTTTTTTTTTTTT PDIG        TELAPSE      912.83 TCPU      459.59
 CHARGE NORMALIZATION FACTOR   1.00000000
 TOTAL ATOMIC CHARGES:
  12.1459121  12.1459121  12.1459121   8.9270439   8.9270439   8.9270439
   8.9270439   8.9270439   8.9270439
 TTTTTTTTTTTTTTTTTTTTTTTTTTTTTT MOQGAD      TELAPSE      913.14 TCPU      459.75
 TTTTTTTTTTTTTTTTTTTTTTTTTTTTTT SHELLX      TELAPSE     1040.68 TCPU      524.74
 TTTTTTTTTTTTTTTTTTTTTTTTTTTTTT MONMO3      TELAPSE     1045.07 TCPU      525.20
 CYC   7 ETOT(AU) -1.316702723810E+03 DETOT -1.21E-04 tst  4.43E-06 PX  2.25E-03
 TTTTTTTTTTTTTTTTTTTTTTTTTTTTTT FDIK        TELAPSE     1045.95 TCPU      525.76
 INSULATING STATE - TOP OF VALENCE BANDS (A.U.) -8.4518472E-01
 TTTTTTTTTTTTTTTTTTTTTTTTTTTTTT PDIG        TELAPSE     1046.16 TCPU      525.86
 CHARGE NORMALIZATION FACTOR   1.00000000
 TOTAL ATOMIC CHARGES:
  12.1432428  12.1432428  12.1432428   8.9283786   8.9283786   8.9283786
   8.9283786   8.9283786   8.9283786
 TTTTTTTTTTTTTTTTTTTTTTTTTTTTTT MOQGAD      TELAPSE     1046.45 TCPU      526.02
 TTTTTTTTTTTTTTTTTTTTTTTTTTTTTT SHELLX      TELAPSE     1110.79 TCPU      590.33
 TTTTTTTTTTTTTTTTTTTTTTTTTTTTTT MONMO3      TELAPSE     1111.66 TCPU      590.78
 CYC   8 ETOT(AU) -1.316702771058E+03 DETOT -4.72E-05 tst  2.01E-06 PX  1.43E-03
 TTTTTTTTTTTTTTTTTTTTTTTTTTTTTT FDIK        TELAPSE     1112.10 TCPU      591.21
 INSULATING STATE - TOP OF VALENCE BANDS (A.U.) -8.4509747E-01
 TTTTTTTTTTTTTTTTTTTTTTTTTTTTTT PDIG        TELAPSE     1112.21 TCPU      591.32
 CHARGE NORMALIZATION FACTOR   1.00000000
 TOTAL ATOMIC CHARGES:
  12.1418047  12.1418047  12.1418047   8.9290977   8.9290977   8.9290977
   8.9290977   8.9290977   8.9290977
 TTTTTTTTTTTTTTTTTTTTTTTTTTTTTT MOQGAD      TELAPSE     1112.35 TCPU      591.46
 TTTTTTTTTTTTTTTTTTTTTTTTTTTTTT SHELLX      TELAPSE     1176.58 TCPU      655.69
 TTTTTTTTTTTTTTTTTTTTTTTTTTTTTT MONMO3      TELAPSE     1176.91 TCPU      656.02
 CYC   9 ETOT(AU) -1.316702791768E+03 DETOT -2.07E-05 tst  9.37E-07 PX  1.29E-03
 TTTTTTTTTTTTTTTTTTTTTTTTTTTTTT FDIK        TELAPSE     1177.34 TCPU      656.45
 INSULATING STATE - TOP OF VALENCE BANDS (A.U.) -8.4506447E-01
 TTTTTTTTTTTTTTTTTTTTTTTTTTTTTT PDIG        TELAPSE     1177.45 TCPU      656.56
 CHARGE NORMALIZATION FACTOR   1.00000000
 TOTAL ATOMIC CHARGES:
  12.1410379  12.1410379  12.1410379   8.9294810   8.9294810   8.9294810
   8.9294810   8.9294810   8.9294810
 TTTTTTTTTTTTTTTTTTTTTTTTTTTTTT MOQGAD      TELAPSE     1177.59 TCPU      656.70
 TTTTTTTTTTTTTTTTTTTTTTTTTTTTTT SHELLX      TELAPSE     1241.80 TCPU      720.89
 TTTTTTTTTTTTTTTTTTTTTTTTTTTTTT MONMO3      TELAPSE     1242.19 TCPU      721.29
 CYC  10 ETOT(AU) -1.316702801487E+03 DETOT -9.72E-06 tst  4.49E-07 PX  1.16E-03
 TTTTTTTTTTTTTTTTTTTTTTTTTTTTTT FDIK        TELAPSE     1242.62 TCPU      721.71
 INSULATING STATE - TOP OF VALENCE BANDS (A.U.) -8.4505564E-01
 TTTTTTTTTTTTTTTTTTTTTTTTTTTTTT PDIG        TELAPSE     1242.73 TCPU      721.81
 CHARGE NORMALIZATION FACTOR   1.00000000
 TOTAL ATOMIC CHARGES:
  12.1406324  12.1406324  12.1406324   8.9296838   8.9296838   8.9296838
   8.9296838   8.9296838   8.9296838
 TTTTTTTTTTTTTTTTTTTTTTTTTTTTTT MOQGAD      TELAPSE     1242.87 TCPU      721.95
 TTTTTTTTTTTTTTTTTTTTTTTTTTTTTT SHELLX      TELAPSE     1307.05 TCPU      786.13
 TTTTTTTTTTTTTTTTTTTTTTTTTTTTTT MONMO3      TELAPSE     1307.42 TCPU      786.50
 CYC  11 ETOT(AU) -1.316702806219E+03 DETOT -4.73E-06 tst  2.21E-07 PX  1.05E-03
 TTTTTTTTTTTTTTTTTTTTTTTTTTTTTT FDIK        TELAPSE     1307.84 TCPU      786.93
 INSULATING STATE - TOP OF VALENCE BANDS (A.U.) -8.4505685E-01
 TTTTTTTTTTTTTTTTTTTTTTTTTTTTTT PDIG        TELAPSE     1307.96 TCPU      787.03
 CHARGE NORMALIZATION FACTOR   1.00000000
 TOTAL ATOMIC CHARGES:
  12.1404152  12.1404152  12.1404152   8.9297924   8.9297924   8.9297924
   8.9297924   8.9297924   8.9297924
 TTTTTTTTTTTTTTTTTTTTTTTTTTTTTT MOQGAD      TELAPSE     1308.10 TCPU      787.17
 TTTTTTTTTTTTTTTTTTTTTTTTTTTTTT SHELLX      TELAPSE     1372.27 TCPU      851.35
 TTTTTTTTTTTTTTTTTTTTTTTTTTTTTT MONMO3      TELAPSE     1372.64 TCPU      851.72
 CYC  12 ETOT(AU) -1.316702808452E+03 DETOT -2.23E-06 tst  1.30E-07 PX  9.51E-04
 TTTTTTTTTTTTTTTTTTTTTTTTTTTTTT FDIK        TELAPSE     1373.07 TCPU      852.14
 INSULATING STATE - TOP OF VALENCE BANDS (A.U.) -8.4506140E-01
 TTTTTTTTTTTTTTTTTTTTTTTTTTTTTT PDIG        TELAPSE     1373.18 TCPU      852.24
 CHARGE NORMALIZATION FACTOR   1.00000000
 TOTAL ATOMIC CHARGES:
  12.1402996  12.1402996  12.1402996   8.9298502   8.9298502   8.9298502
   8.9298502   8.9298502   8.9298502
 TTTTTTTTTTTTTTTTTTTTTTTTTTTTTT MOQGAD      TELAPSE     1373.32 TCPU      852.38
 TTTTTTTTTTTTTTTTTTTTTTTTTTTTTT SHELLX      TELAPSE     1437.50 TCPU      916.56
 TTTTTTTTTTTTTTTTTTTTTTTTTTTTTT MONMO3      TELAPSE     1437.86 TCPU      916.93
 CYC  13 ETOT(AU) -1.316702809370E+03 DETOT -9.18E-07 tst  9.13E-08 PX  8.61E-04
 TTTTTTTTTTTTTTTTTTTTTTTTTTTTTT FDIK        TELAPSE     1438.28 TCPU      917.35
 INSULATING STATE - TOP OF VALENCE BANDS (A.U.) -8.4506655E-01
 TTTTTTTTTTTTTTTTTTTTTTTTTTTTTT PDIG        TELAPSE     1438.39 TCPU      917.46
 CHARGE NORMALIZATION FACTOR   1.00000000
 TOTAL ATOMIC CHARGES:
  12.1402367  12.1402367  12.1402367   8.9298816   8.9298816   8.9298816
   8.9298816   8.9298816   8.9298816
 TTTTTTTTTTTTTTTTTTTTTTTTTTTTTT MOQGAD      TELAPSE     1438.53 TCPU      917.60
 TTTTTTTTTTTTTTTTTTTTTTTTTTTTTT SHELLX      TELAPSE     1511.12 TCPU      969.36
 TTTTTTTTTTTTTTTTTTTTTTTTTTTTTT MONMO3      TELAPSE     1511.40 TCPU      969.63
 CYC  14 ETOT(AU) -1.316702809561E+03 DETOT -1.91E-07 tst  6.55E-08 PX  7.81E-04
 TTTTTTTTTTTTTTTTTTTTTTTTTTTTTT FDIK        TELAPSE     1511.83 TCPU      970.04
 INSULATING STATE - TOP OF VALENCE BANDS (A.U.) -8.4507125E-01
 TTTTTTTTTTTTTTTTTTTTTTTTTTTTTT PDIG        TELAPSE     1511.94 TCPU      970.14
 CHARGE NORMALIZATION FACTOR   1.00000000
 TOTAL ATOMIC CHARGES:
  12.1402026  12.1402026  12.1402026   8.9298987   8.9298987   8.9298987
   8.9298987   8.9298987   8.9298987
 TTTTTTTTTTTTTTTTTTTTTTTTTTTTTT MOQGAD      TELAPSE     1512.08 TCPU      970.26
 TTTTTTTTTTTTTTTTTTTTTTTTTTTTTT SHELLX      TELAPSE     1591.03 TCPU     1018.08
 TTTTTTTTTTTTTTTTTTTTTTTTTTTTTT MONMO3      TELAPSE     1593.24 TCPU     1018.46
 CYC  15 ETOT(AU) -1.316702809385E+03 DETOT  1.76E-07 tst  4.76E-08 PX  7.08E-04
 TTTTTTTTTTTTTTTTTTTTTTTTTTTTTT FDIK        TELAPSE     1593.66 TCPU     1018.88
 INSULATING STATE - TOP OF VALENCE BANDS (A.U.) -8.4507531E-01
 TTTTTTTTTTTTTTTTTTTTTTTTTTTTTT PDIG        TELAPSE     1593.77 TCPU     1018.97
 CHARGE NORMALIZATION FACTOR   1.00000000
 TOTAL ATOMIC CHARGES:
  12.1401832  12.1401832  12.1401832   8.9299084   8.9299084   8.9299084
   8.9299084   8.9299084   8.9299084
 TTTTTTTTTTTTTTTTTTTTTTTTTTTTTT MOQGAD      TELAPSE     1593.91 TCPU     1019.11
 TTTTTTTTTTTTTTTTTTTTTTTTTTTTTT SHELLX      TELAPSE     1671.54 TCPU     1068.38
 TTTTTTTTTTTTTTTTTTTTTTTTTTTTTT MONMO3      TELAPSE     1672.41 TCPU     1068.77
 CYC  16 ETOT(AU) -1.316702808993E+03 DETOT  3.91E-07 tst  3.50E-08 PX  6.43E-04
 TTTTTTTTTTTTTTTTTTTTTTTTTTTTTT FDIK        TELAPSE     1672.83 TCPU     1069.19
 INSULATING STATE - TOP OF VALENCE BANDS (A.U.) -8.4507875E-01
 TTTTTTTTTTTTTTTTTTTTTTTTTTTTTT PDIG        TELAPSE     1672.94 TCPU     1069.29
 CHARGE NORMALIZATION FACTOR   1.00000000
 TOTAL ATOMIC CHARGES:
  12.1401712  12.1401712  12.1401712   8.9299144   8.9299144   8.9299144
   8.9299144   8.9299144   8.9299144
 TTTTTTTTTTTTTTTTTTTTTTTTTTTTTT MOQGAD      TELAPSE     1673.08 TCPU     1069.43
 TTTTTTTTTTTTTTTTTTTTTTTTTTTTTT SHELLX      TELAPSE     1751.85 TCPU     1118.06
 TTTTTTTTTTTTTTTTTTTTTTTTTTTTTT MONMO3      TELAPSE     1753.28 TCPU     1118.34
 CYC  17 ETOT(AU) -1.316702808508E+03 DETOT  4.85E-07 tst  2.70E-08 PX  5.83E-04
 TTTTTTTTTTTTTTTTTTTTTTTTTTTTTT FDIK        TELAPSE     1753.70 TCPU     1118.77
 INSULATING STATE - TOP OF VALENCE BANDS (A.U.) -8.4508166E-01
 TTTTTTTTTTTTTTTTTTTTTTTTTTTTTT PDIG        TELAPSE     1753.81 TCPU     1118.87
 CHARGE NORMALIZATION FACTOR   1.00000000
 TOTAL ATOMIC CHARGES:
  12.1401641  12.1401641  12.1401641   8.9299180   8.9299180   8.9299180
   8.9299180   8.9299180   8.9299180
 TTTTTTTTTTTTTTTTTTTTTTTTTTTTTT MOQGAD      TELAPSE     1753.95 TCPU     1119.01
 TTTTTTTTTTTTTTTTTTTTTTTTTTTTTT SHELLX      TELAPSE     1830.33 TCPU     1163.74
 TTTTTTTTTTTTTTTTTTTTTTTTTTTTTT MONMO3      TELAPSE     1830.60 TCPU     1164.01
 CYC  18 ETOT(AU) -1.316702807986E+03 DETOT  5.22E-07 tst  2.20E-08 PX  5.30E-04
 TTTTTTTTTTTTTTTTTTTTTTTTTTTTTT FDIK        TELAPSE     1831.01 TCPU     1164.37
 INSULATING STATE - TOP OF VALENCE BANDS (A.U.) -8.4508415E-01
 TTTTTTTTTTTTTTTTTTTTTTTTTTTTTT PDIG        TELAPSE     1831.13 TCPU     1164.46
 CHARGE NORMALIZATION FACTOR   1.00000000
 TOTAL ATOMIC CHARGES:
  12.1401598  12.1401598  12.1401598   8.9299201   8.9299201   8.9299201
   8.9299201   8.9299201   8.9299201
 TTTTTTTTTTTTTTTTTTTTTTTTTTTTTT MOQGAD      TELAPSE     1831.27 TCPU     1164.57
 TTTTTTTTTTTTTTTTTTTTTTTTTTTTTT SHELLX      TELAPSE     1906.74 TCPU     1207.54
 TTTTTTTTTTTTTTTTTTTTTTTTTTTTTT MONMO3      TELAPSE     1907.01 TCPU     1207.82
 CYC  19 ETOT(AU) -1.316702807443E+03 DETOT  5.43E-07 tst  1.78E-08 PX  4.81E-04
 TTTTTTTTTTTTTTTTTTTTTTTTTTTTTT FDIK        TELAPSE     1907.43 TCPU     1208.18
 INSULATING STATE - TOP OF VALENCE BANDS (A.U.) -8.4508629E-01
 TTTTTTTTTTTTTTTTTTTTTTTTTTTTTT PDIG        TELAPSE     1907.54 TCPU     1208.28
 CHARGE NORMALIZATION FACTOR   1.00000000
 TOTAL ATOMIC CHARGES:
  12.1401558  12.1401558  12.1401558   8.9299221   8.9299221   8.9299221
   8.9299221   8.9299221   8.9299221
 TTTTTTTTTTTTTTTTTTTTTTTTTTTTTT MOQGAD      TELAPSE     1907.68 TCPU     1208.38
 TTTTTTTTTTTTTTTTTTTTTTTTTTTTTT SHELLX      TELAPSE     1983.98 TCPU     1252.97
 TTTTTTTTTTTTTTTTTTTTTTTTTTTTTT MONMO3      TELAPSE     1984.26 TCPU     1253.24
 CYC  20 ETOT(AU) -1.316702806927E+03 DETOT  5.16E-07 tst  1.45E-08 PX  4.37E-04
 TTTTTTTTTTTTTTTTTTTTTTTTTTTTTT FDIK        TELAPSE     1984.68 TCPU     1253.59
 INSULATING STATE - TOP OF VALENCE BANDS (A.U.) -8.4508819E-01
 TTTTTTTTTTTTTTTTTTTTTTTTTTTTTT PDIG        TELAPSE     1984.79 TCPU     1253.68
 CHARGE NORMALIZATION FACTOR   1.00000000
 TOTAL ATOMIC CHARGES:
  12.1401530  12.1401530  12.1401530   8.9299235   8.9299235   8.9299235
   8.9299235   8.9299235   8.9299235
 TTTTTTTTTTTTTTTTTTTTTTTTTTTTTT MOQGAD      TELAPSE     1984.93 TCPU     1253.78
 TTTTTTTTTTTTTTTTTTTTTTTTTTTTTT SHELLX      TELAPSE     2060.46 TCPU     1298.50
 TTTTTTTTTTTTTTTTTTTTTTTTTTTTTT MONMO3      TELAPSE     2060.85 TCPU     1298.84
 CYC  21 ETOT(AU) -1.316702806439E+03 DETOT  4.88E-07 tst  1.19E-08 PX  3.98E-04
 TTTTTTTTTTTTTTTTTTTTTTTTTTTTTT FDIK        TELAPSE     2061.28 TCPU     1299.22
 INSULATING STATE - TOP OF VALENCE BANDS (A.U.) -8.4508987E-01
 TTTTTTTTTTTTTTTTTTTTTTTTTTTTTT PDIG        TELAPSE     2061.39 TCPU     1299.30
 CHARGE NORMALIZATION FACTOR   1.00000000
 TOTAL ATOMIC CHARGES:
  12.1401501  12.1401501  12.1401501   8.9299250   8.9299250   8.9299250
   8.9299250   8.9299250   8.9299250
 TTTTTTTTTTTTTTTTTTTTTTTTTTTTTT MOQGAD      TELAPSE     2061.53 TCPU     1299.39
 TTTTTTTTTTTTTTTTTTTTTTTTTTTTTT SHELLX      TELAPSE     2138.63 TCPU     1344.47
 TTTTTTTTTTTTTTTTTTTTTTTTTTTTTT MONMO3      TELAPSE     2138.91 TCPU     1344.74
 CYC  22 ETOT(AU) -1.316702805980E+03 DETOT  4.60E-07 tst  9.70E-09 PX  3.62E-04
 TTTTTTTTTTTTTTTTTTTTTTTTTTTTTT FDIK        TELAPSE     2139.33 TCPU     1345.17
 INSULATING STATE - TOP OF VALENCE BANDS (A.U.) -8.4509140E-01
 TTTTTTTTTTTTTTTTTTTTTTTTTTTTTT PDIG        TELAPSE     2139.44 TCPU     1345.27
 CHARGE NORMALIZATION FACTOR   1.00000000
 TOTAL ATOMIC CHARGES:
  12.1401483  12.1401483  12.1401483   8.9299258   8.9299258   8.9299258
   8.9299258   8.9299258   8.9299258
 TTTTTTTTTTTTTTTTTTTTTTTTTTTTTT MOQGAD      TELAPSE     2139.59 TCPU     1345.38
 TTTTTTTTTTTTTTTTTTTTTTTTTTTTTT SHELLX      TELAPSE     2214.98 TCPU     1388.47
 TTTTTTTTTTTTTTTTTTTTTTTTTTTTTT MONMO3      TELAPSE     2215.25 TCPU     1388.74
 CYC  23 ETOT(AU) -1.316702805548E+03 DETOT  4.32E-07 tst  7.95E-09 PX  3.29E-04
 TTTTTTTTTTTTTTTTTTTTTTTTTTTTTT FDIK        TELAPSE     2215.67 TCPU     1389.15
 INSULATING STATE - TOP OF VALENCE BANDS (A.U.) -8.4509279E-01
 TTTTTTTTTTTTTTTTTTTTTTTTTTTTTT PDIG        TELAPSE     2215.80 TCPU     1389.25
 CHARGE NORMALIZATION FACTOR   1.00000000
 TOTAL ATOMIC CHARGES:
  12.1401462  12.1401462  12.1401462   8.9299269   8.9299269   8.9299269
   8.9299269   8.9299269   8.9299269
 TTTTTTTTTTTTTTTTTTTTTTTTTTTTTT MOQGAD      TELAPSE     2215.94 TCPU     1389.39
 TTTTTTTTTTTTTTTTTTTTTTTTTTTTTT SHELLX      TELAPSE     2289.66 TCPU     1439.73
 TTTTTTTTTTTTTTTTTTTTTTTTTTTTTT MONMO3      TELAPSE     2289.93 TCPU     1440.00
 CYC  24 ETOT(AU) -1.316702805158E+03 DETOT  3.90E-07 tst  6.54E-09 PX  3.00E-04
 TTTTTTTTTTTTTTTTTTTTTTTTTTTTTT FDIK        TELAPSE     2290.36 TCPU     1440.42
 INSULATING STATE - TOP OF VALENCE BANDS (A.U.) -8.4509407E-01
 TTTTTTTTTTTTTTTTTTTTTTTTTTTTTT PDIG        TELAPSE     2290.47 TCPU     1440.53
 CHARGE NORMALIZATION FACTOR   1.00000000
 TOTAL ATOMIC CHARGES:
  12.1401445  12.1401445  12.1401445   8.9299278   8.9299278   8.9299278
   8.9299278   8.9299278   8.9299278
 TTTTTTTTTTTTTTTTTTTTTTTTTTTTTT MOQGAD      TELAPSE     2290.61 TCPU     1440.67
 TTTTTTTTTTTTTTTTTTTTTTTTTTTTTT SHELLX      TELAPSE     2356.06 TCPU     1504.32
 TTTTTTTTTTTTTTTTTTTTTTTTTTTTTT MONMO3      TELAPSE     2356.34 TCPU     1504.60
 CYC  25 ETOT(AU) -1.316702804792E+03 DETOT  3.65E-07 tst  5.39E-09 PX  2.73E-04
 TTTTTTTTTTTTTTTTTTTTTTTTTTTTTT FDIK        TELAPSE     2356.76 TCPU     1505.03
 INSULATING STATE - TOP OF VALENCE BANDS (A.U.) -8.4509522E-01
 TTTTTTTTTTTTTTTTTTTTTTTTTTTTTT PDIG        TELAPSE     2356.88 TCPU     1505.13
 CHARGE NORMALIZATION FACTOR   1.00000000
 TOTAL ATOMIC CHARGES:
  12.1401430  12.1401430  12.1401430   8.9299285   8.9299285   8.9299285
   8.9299285   8.9299285   8.9299285
 TTTTTTTTTTTTTTTTTTTTTTTTTTTTTT MOQGAD      TELAPSE     2357.03 TCPU     1505.26
 TTTTTTTTTTTTTTTTTTTTTTTTTTTTTT SHELLX      TELAPSE     2422.92 TCPU     1568.32
 TTTTTTTTTTTTTTTTTTTTTTTTTTTTTT MONMO3      TELAPSE     2423.21 TCPU     1568.60
 CYC  26 ETOT(AU) -1.316702804462E+03 DETOT  3.31E-07 tst  4.45E-09 PX  2.49E-04
 TTTTTTTTTTTTTTTTTTTTTTTTTTTTTT FDIK        TELAPSE     2423.63 TCPU     1568.97
 INSULATING STATE - TOP OF VALENCE BANDS (A.U.) -8.4509630E-01
 TTTTTTTTTTTTTTTTTTTTTTTTTTTTTT PDIG        TELAPSE     2423.74 TCPU     1569.07
 CHARGE NORMALIZATION FACTOR   1.00000000
 TOTAL ATOMIC CHARGES:
  12.1401414  12.1401414  12.1401414   8.9299293   8.9299293   8.9299293
   8.9299293   8.9299293   8.9299293
 TTTTTTTTTTTTTTTTTTTTTTTTTTTTTT MOQGAD      TELAPSE     2423.89 TCPU     1569.19
 TTTTTTTTTTTTTTTTTTTTTTTTTTTTTT SHELLX      TELAPSE     2490.10 TCPU     1631.16
 TTTTTTTTTTTTTTTTTTTTTTTTTTTTTT MONMO3      TELAPSE     2490.37 TCPU     1631.44
 CYC  27 ETOT(AU) -1.316702804157E+03 DETOT  3.04E-07 tst  3.69E-09 PX  2.28E-04
 TTTTTTTTTTTTTTTTTTTTTTTTTTTTTT FDIK        TELAPSE     2490.82 TCPU     1631.86
 INSULATING STATE - TOP OF VALENCE BANDS (A.U.) -8.4509727E-01
 TTTTTTTTTTTTTTTTTTTTTTTTTTTTTT PDIG        TELAPSE     2490.93 TCPU     1631.97
 CHARGE NORMALIZATION FACTOR   1.00000000
 TOTAL ATOMIC CHARGES:
  12.1401401  12.1401401  12.1401401   8.9299299   8.9299299   8.9299299
   8.9299299   8.9299299   8.9299299
 TTTTTTTTTTTTTTTTTTTTTTTTTTTTTT MOQGAD      TELAPSE     2491.07 TCPU     1632.11
 TTTTTTTTTTTTTTTTTTTTTTTTTTTTTT SHELLX      TELAPSE     2555.49 TCPU     1696.51
 TTTTTTTTTTTTTTTTTTTTTTTTTTTTTT MONMO3      TELAPSE     2556.12 TCPU     1696.95
 CYC  28 ETOT(AU) -1.316702803882E+03 DETOT  2.76E-07 tst  3.06E-09 PX  2.08E-04
 TTTTTTTTTTTTTTTTTTTTTTTTTTTTTT FDIK        TELAPSE     2556.55 TCPU     1697.38
 INSULATING STATE - TOP OF VALENCE BANDS (A.U.) -8.4509821E-01
 TTTTTTTTTTTTTTTTTTTTTTTTTTTTTT PDIG        TELAPSE     2556.66 TCPU     1697.48
 CHARGE NORMALIZATION FACTOR   1.00000000
 TOTAL ATOMIC CHARGES:
  12.1401386  12.1401386  12.1401386   8.9299307   8.9299307   8.9299307
   8.9299307   8.9299307   8.9299307
 TTTTTTTTTTTTTTTTTTTTTTTTTTTTTT MOQGAD      TELAPSE     2556.80 TCPU     1697.63
 TTTTTTTTTTTTTTTTTTTTTTTTTTTTTT SHELLX      TELAPSE     2621.09 TCPU     1761.90
 TTTTTTTTTTTTTTTTTTTTTTTTTTTTTT MONMO3      TELAPSE     2621.88 TCPU     1762.35
 CYC  29 ETOT(AU) -1.316702803627E+03 DETOT  2.55E-07 tst  2.55E-09 PX  1.90E-04
 TTTTTTTTTTTTTTTTTTTTTTTTTTTTTT FDIK        TELAPSE     2622.31 TCPU     1762.77
 INSULATING STATE - TOP OF VALENCE BANDS (A.U.) -8.4509905E-01
 TTTTTTTTTTTTTTTTTTTTTTTTTTTTTT PDIG        TELAPSE     2622.42 TCPU     1762.88
 CHARGE NORMALIZATION FACTOR   1.00000000
 TOTAL ATOMIC CHARGES:
  12.1401375  12.1401375  12.1401375   8.9299313   8.9299313   8.9299313
   8.9299313   8.9299313   8.9299313
 TTTTTTTTTTTTTTTTTTTTTTTTTTTTTT MOQGAD      TELAPSE     2622.57 TCPU     1762.99
 TTTTTTTTTTTTTTTTTTTTTTTTTTTTTT SHELLX      TELAPSE     2686.64 TCPU     1827.03
 TTTTTTTTTTTTTTTTTTTTTTTTTTTTTT MONMO3      TELAPSE     2688.04 TCPU     1827.48
 CYC  30 ETOT(AU) -1.316702803398E+03 DETOT  2.29E-07 tst  2.13E-09 PX  1.73E-04
 TTTTTTTTTTTTTTTTTTTTTTTTTTTTTT FDIK        TELAPSE     2688.47 TCPU     1827.90
 INSULATING STATE - TOP OF VALENCE BANDS (A.U.) -8.4509984E-01
 TTTTTTTTTTTTTTTTTTTTTTTTTTTTTT PDIG        TELAPSE     2688.58 TCPU     1828.00
 CHARGE NORMALIZATION FACTOR   1.00000000
 TOTAL ATOMIC CHARGES:
  12.1401363  12.1401363  12.1401363   8.9299318   8.9299318   8.9299318
   8.9299318   8.9299318   8.9299318
 TTTTTTTTTTTTTTTTTTTTTTTTTTTTTT MOQGAD      TELAPSE     2688.73 TCPU     1828.15
 TTTTTTTTTTTTTTTTTTTTTTTTTTTTTT SHELLX      TELAPSE     2752.91 TCPU     1892.31
 TTTTTTTTTTTTTTTTTTTTTTTTTTTTTT MONMO3      TELAPSE     2753.94 TCPU     1892.75
 CYC  31 ETOT(AU) -1.316702803190E+03 DETOT  2.08E-07 tst  1.81E-09 PX  1.59E-04
 TTTTTTTTTTTTTTTTTTTTTTTTTTTTTT FDIK        TELAPSE     2754.37 TCPU     1893.18
 INSULATING STATE - TOP OF VALENCE BANDS (A.U.) -8.4510056E-01
 TTTTTTTTTTTTTTTTTTTTTTTTTTTTTT PDIG        TELAPSE     2754.49 TCPU     1893.29
 CHARGE NORMALIZATION FACTOR   1.00000000
 TOTAL ATOMIC CHARGES:
  12.1401353  12.1401353  12.1401353   8.9299323   8.9299323   8.9299323
   8.9299323   8.9299323   8.9299323
 TTTTTTTTTTTTTTTTTTTTTTTTTTTTTT MOQGAD      TELAPSE     2754.63 TCPU     1893.43
 TTTTTTTTTTTTTTTTTTTTTTTTTTTTTT SHELLX      TELAPSE     2818.68 TCPU     1957.38
 TTTTTTTTTTTTTTTTTTTTTTTTTTTTTT MONMO3      TELAPSE     2819.87 TCPU     1957.83
 CYC  32 ETOT(AU) -1.316702802998E+03 DETOT  1.92E-07 tst  1.55E-09 PX  1.45E-04
 TTTTTTTTTTTTTTTTTTTTTTTTTTTTTT FDIK        TELAPSE     2820.32 TCPU     1958.27
 INSULATING STATE - TOP OF VALENCE BANDS (A.U.) -8.4510122E-01
 TTTTTTTTTTTTTTTTTTTTTTTTTTTTTT PDIG        TELAPSE     2820.43 TCPU     1958.38
 CHARGE NORMALIZATION FACTOR   1.00000000
 TOTAL ATOMIC CHARGES:
  12.1401344  12.1401344  12.1401344   8.9299328   8.9299328   8.9299328
   8.9299328   8.9299328   8.9299328
 TTTTTTTTTTTTTTTTTTTTTTTTTTTTTT MOQGAD      TELAPSE     2820.57 TCPU     1958.52
 TTTTTTTTTTTTTTTTTTTTTTTTTTTTTT SHELLX      TELAPSE     2884.26 TCPU     2021.75
 TTTTTTTTTTTTTTTTTTTTTTTTTTTTTT MONMO3      TELAPSE     2886.18 TCPU     2022.18
 CYC  33 ETOT(AU) -1.316702802824E+03 DETOT  1.74E-07 tst  1.33E-09 PX  1.33E-04
 TTTTTTTTTTTTTTTTTTTTTTTTTTTTTT FDIK        TELAPSE     2886.61 TCPU     2022.60
 INSULATING STATE - TOP OF VALENCE BANDS (A.U.) -8.4510185E-01
 TTTTTTTTTTTTTTTTTTTTTTTTTTTTTT PDIG        TELAPSE     2886.72 TCPU     2022.71
 CHARGE NORMALIZATION FACTOR   1.00000000
 TOTAL ATOMIC CHARGES:
  12.1401336  12.1401336  12.1401336   8.9299332   8.9299332   8.9299332
   8.9299332   8.9299332   8.9299332
 TTTTTTTTTTTTTTTTTTTTTTTTTTTTTT MOQGAD      TELAPSE     2886.86 TCPU     2022.85
 TTTTTTTTTTTTTTTTTTTTTTTTTTTTTT SHELLX      TELAPSE     2951.24 TCPU     2087.14
 TTTTTTTTTTTTTTTTTTTTTTTTTTTTTT MONMO3      TELAPSE     2951.51 TCPU     2087.41
 CYC  34 ETOT(AU) -1.316702802665E+03 DETOT  1.59E-07 tst  1.15E-09 PX  1.22E-04
 TTTTTTTTTTTTTTTTTTTTTTTTTTTTTT FDIK        TELAPSE     2951.93 TCPU     2087.83
 INSULATING STATE - TOP OF VALENCE BANDS (A.U.) -8.4510242E-01
 TTTTTTTTTTTTTTTTTTTTTTTTTTTTTT PDIG        TELAPSE     2952.04 TCPU     2087.93
 CHARGE NORMALIZATION FACTOR   1.00000000
 TOTAL ATOMIC CHARGES:
  12.1401327  12.1401327  12.1401327   8.9299337   8.9299337   8.9299337
   8.9299337   8.9299337   8.9299337
 TTTTTTTTTTTTTTTTTTTTTTTTTTTTTT MOQGAD      TELAPSE     2952.18 TCPU     2088.03
 TTTTTTTTTTTTTTTTTTTTTTTTTTTTTT SHELLX      TELAPSE     3016.45 TCPU     2152.27
 TTTTTTTTTTTTTTTTTTTTTTTTTTTTTT MONMO3      TELAPSE     3016.81 TCPU     2152.62
 CYC  35 ETOT(AU) -1.316702802520E+03 DETOT  1.45E-07 tst  9.92E-10 PX  1.14E-04
 TTTTTTTTTTTTTTTTTTTTTTTTTTTTTT FDIK        TELAPSE     3017.23 TCPU     2153.04
 INSULATING STATE - TOP OF VALENCE BANDS (A.U.) -8.4510294E-01
 TTTTTTTTTTTTTTTTTTTTTTTTTTTTTT PDIG        TELAPSE     3017.34 TCPU     2153.15
 CHARGE NORMALIZATION FACTOR   1.00000000
 TOTAL ATOMIC CHARGES:
  12.1401321  12.1401321  12.1401321   8.9299339   8.9299339   8.9299339
   8.9299339   8.9299339   8.9299339
 TTTTTTTTTTTTTTTTTTTTTTTTTTTTTT MOQGAD      TELAPSE     3017.48 TCPU     2153.29
 TTTTTTTTTTTTTTTTTTTTTTTTTTTTTT SHELLX      TELAPSE     3081.91 TCPU     2217.43
 TTTTTTTTTTTTTTTTTTTTTTTTTTTTTT MONMO3      TELAPSE     3082.21 TCPU     2217.73
 CYC  36 ETOT(AU) -1.316702802388E+03 DETOT  1.31E-07 tst  8.66E-10 PX  1.08E-04
 TTTTTTTTTTTTTTTTTTTTTTTTTTTTTT FDIK        TELAPSE     3082.63 TCPU     2218.15
 INSULATING STATE - TOP OF VALENCE BANDS (A.U.) -8.4510344E-01
 TTTTTTTTTTTTTTTTTTTTTTTTTTTTTT PDIG        TELAPSE     3082.74 TCPU     2218.26
 CHARGE NORMALIZATION FACTOR   1.00000000
 TOTAL ATOMIC CHARGES:
  12.1401314  12.1401314  12.1401314   8.9299343   8.9299343   8.9299343
   8.9299343   8.9299343   8.9299343
 TTTTTTTTTTTTTTTTTTTTTTTTTTTTTT MOQGAD      TELAPSE     3082.88 TCPU     2218.40
 TTTTTTTTTTTTTTTTTTTTTTTTTTTTTT SHELLX      TELAPSE     3147.39 TCPU     2282.59
 TTTTTTTTTTTTTTTTTTTTTTTTTTTTTT MONMO3      TELAPSE     3147.66 TCPU     2282.87
 CYC  37 ETOT(AU) -1.316702802267E+03 DETOT  1.21E-07 tst  7.54E-10 PX  1.02E-04
 TTTTTTTTTTTTTTTTTTTTTTTTTTTTTT FDIK        TELAPSE     3148.09 TCPU     2283.30
 INSULATING STATE - TOP OF VALENCE BANDS (A.U.) -8.4510389E-01
 TTTTTTTTTTTTTTTTTTTTTTTTTTTTTT PDIG        TELAPSE     3148.21 TCPU     2283.41
 CHARGE NORMALIZATION FACTOR   1.00000000
 TOTAL ATOMIC CHARGES:
  12.1401309  12.1401309  12.1401309   8.9299346   8.9299346   8.9299346
   8.9299346   8.9299346   8.9299346
 TTTTTTTTTTTTTTTTTTTTTTTTTTTTTT MOQGAD      TELAPSE     3148.35 TCPU     2283.55
 TTTTTTTTTTTTTTTTTTTTTTTTTTTTTT SHELLX      TELAPSE     3212.78 TCPU     2347.74
 TTTTTTTTTTTTTTTTTTTTTTTTTTTTTT MONMO3      TELAPSE     3213.07 TCPU     2348.03
 CYC  38 ETOT(AU) -1.316702802157E+03 DETOT  1.10E-07 tst  6.59E-10 PX  9.61E-05
 TTTTTTTTTTTTTTTTTTTTTTTTTTTTTT FDIK        TELAPSE     3213.49 TCPU     2348.45
 INSULATING STATE - TOP OF VALENCE BANDS (A.U.) -8.4510432E-01
 TTTTTTTTTTTTTTTTTTTTTTTTTTTTTT PDIG        TELAPSE     3213.60 TCPU     2348.56
 CHARGE NORMALIZATION FACTOR   1.00000000
 TOTAL ATOMIC CHARGES:
  12.1401302  12.1401302  12.1401302   8.9299349   8.9299349   8.9299349
   8.9299349   8.9299349   8.9299349
 TTTTTTTTTTTTTTTTTTTTTTTTTTTTTT MOQGAD      TELAPSE     3213.74 TCPU     2348.70
 TTTTTTTTTTTTTTTTTTTTTTTTTTTTTT SHELLX      TELAPSE     3278.20 TCPU     2412.97
 TTTTTTTTTTTTTTTTTTTTTTTTTTTTTT MONMO3      TELAPSE     3278.49 TCPU     2413.25
 CYC  39 ETOT(AU) -1.316702802056E+03 DETOT  1.01E-07 tst  5.75E-10 PX  9.05E-05
 TTTTTTTTTTTTTTTTTTTTTTTTTTTTTT FDIK        TELAPSE     3278.91 TCPU     2413.67
 INSULATING STATE - TOP OF VALENCE BANDS (A.U.) -8.4510471E-01
 TTTTTTTTTTTTTTTTTTTTTTTTTTTTTT PDIG        TELAPSE     3279.02 TCPU     2413.78
 CHARGE NORMALIZATION FACTOR   1.00000000
 TOTAL ATOMIC CHARGES:
  12.1401298  12.1401298  12.1401298   8.9299351   8.9299351   8.9299351
   8.9299351   8.9299351   8.9299351
 TTTTTTTTTTTTTTTTTTTTTTTTTTTTTT MOQGAD      TELAPSE     3279.16 TCPU     2413.92
 TTTTTTTTTTTTTTTTTTTTTTTTTTTTTT SHELLX      TELAPSE     3343.74 TCPU     2477.84
 TTTTTTTTTTTTTTTTTTTTTTTTTTTTTT MONMO3      TELAPSE     3344.04 TCPU     2478.13
 CYC  40 ETOT(AU) -1.316702801964E+03 DETOT  9.22E-08 tst  5.01E-10 PX  8.53E-05
 TTTTTTTTTTTTTTTTTTTTTTTTTTTTTT FDIK        TELAPSE     3344.47 TCPU     2478.56
 INSULATING STATE - TOP OF VALENCE BANDS (A.U.) -8.4510507E-01
 TTTTTTTTTTTTTTTTTTTTTTTTTTTTTT PDIG        TELAPSE     3344.58 TCPU     2478.67
 CHARGE NORMALIZATION FACTOR   1.00000000
 TOTAL ATOMIC CHARGES:
  12.1401291  12.1401291  12.1401291   8.9299354   8.9299354   8.9299354
   8.9299354   8.9299354   8.9299354
 TTTTTTTTTTTTTTTTTTTTTTTTTTTTTT MOQGAD      TELAPSE     3344.72 TCPU     2478.81
 TTTTTTTTTTTTTTTTTTTTTTTTTTTTTT SHELLX      TELAPSE     3410.46 TCPU     2537.35
 +++ ENERGIES IN A.U. +++
 ::: EXT EL-POLE                                  -1.2740362645351E+03
 ::: EXT EL-SPHEROPOLE                             1.5863017102098E+01
 ::: BIELET ZONE E-E                               1.5665112811677E+03
 ::: TOTAL E-E                                     3.0833803373474E+02
 ::: TOTAL E-N + N-E                              -2.7106276358298E+03
 ::: TOTAL N-N                                    -2.3034809622586E+02
 ::: KINETIC ENERGY                                1.3159348964430E+03
 ::: TOTAL   ENERGY                               -1.3167028018779E+03
 ::: VIRIAL COEFFICIENT                            9.9970831328773E-01
 TTTTTTTTTTTTTTTTTTTTTTTTTTTTTT MONMO3      TELAPSE     3412.01 TCPU     2537.73
 CYC  41 ETOT(AU) -1.316702801878E+03 DETOT  8.64E-08 tst  4.38E-10 PX  8.53E-05

 == SCF ENDED - CONVERGENCE ON ENERGY      E(AU) -1.3167028018779E+03 CYCLES  41

 TOTAL ENERGY(HF)(AU)(  41) -1.3167028018779E+03 DE 8.6E-08 tst 4.4E-10 PX 8.5E-05

 *******************************************************************************
 *                             FORCE CALCULATION                               *
 *******************************************************************************

 INFORMATION **** EXCPOG **** EXCH. BIPO BUFFER LENGTH (WORDS) =   1440000
 WARNING **** EXCPOG **** EXCH. BIPO BUFFER TOO SMALL - TO AVOID I/O SET EXCHSIZE =    916110
 INFORMATION **** GENPOG **** BIPO BUFFER LENGTH (WORDS) =    310500
 TTTTTTTTTTTTTTTTTTTTTTTTTTTTTT SHELXG      TELAPSE     3979.96 TCPU     3050.43

 CARTESIAN FORCES (ANALYTICAL)
   ATOM                     X                   Y                   Z
   1  14             1.205987731068E-05 -6.962773421104E-06  4.551914400963E-15
   2  14            -1.509903313490E-14  1.392554684121E-05 -1.421085471520E-14
   3  14            -1.205987733854E-05 -6.962773428820E-06  1.243449787580E-14
   4   8            -6.230456145850E-05 -1.004732315861E-04  1.445553437707E-04
   5   8             1.181646517079E-04 -3.720717194788E-06  1.445553437462E-04
   6   8            -5.586009023073E-05  1.041939487783E-04  1.445553437605E-04
   7   8             5.586009024583E-05  1.041939488067E-04 -1.445553437551E-04
   8   8             6.230456145850E-05 -1.004732316034E-04 -1.445553437538E-04
   9   8            -1.181646516805E-04 -3.720717189459E-06 -1.445553437724E-04

 RESULTANT FORCE    -4.440892098501E-16  2.386979502944E-15 -1.221245327088E-15

 SYMMETRY ALLOWED FORCES (ANALYTICAL) (DIRECTION, FORCE)

    1  2.4119755E-05    2 -9.1138586E-06    3 -2.8944310E-04    4  3.5408683E-04
 TTTTTTTTTTTTTTTTTTTTTTTTTTTTTT TOTGRA      TELAPSE     3981.59 TCPU     3051.96
 INFORMATION **** opta001 **** GEOMETRY OUTPUT FILE
 CLASSICAL MODEL (SCHLEGEL) USED AS INITIAL HESSIAN MATRIX
 REFERENCE GEOMETRY DEFINED

 MAX GRADIENT      0.000354  THRESHOLD              0.000450 CONVERGED YES
 RMS GRADIENT      0.000229  THRESHOLD              0.000300 CONVERGED YES

 WARNINGWARNINGWARNINGWARNINGWARNINGWARNINGWARNINGWARNINGWARNINGWARNINGWARNING

 CONVERGENCE ON GRADIENTS SATISFIED AFTER THE FIRST OPTIMIZATION CYCLE
 GEOMETRY OPTIMIZATION STOPPED

 WARNINGWARNINGWARNINGWARNINGWARNINGWARNINGWARNINGWARNINGWARNINGWARNINGWARNING


 ******************************************************************
 * OPT END - CONVERGED * E(AU):  -1.316702801878E+03  POINTS    1 *
 ******************************************************************

 EIGENVECTORS IN FORTRAN UNIT 10

 NEIGHBORS OF THE NON-EQUIVALENT ATOMS

 N = NUMBER OF NEIGHBORS AT DISTANCE R
    ATOM  N     R/ANG      R/AU   NEIGHBORS (ATOM LABELS AND CELL INDICES)
   1 SI   2     1.6049     3.0328   4 O    0 0 0   7 O    0 0 0
   1 SI   2     1.6071     3.0371   5 O    1 0 0   8 O    1 0 0
   1 SI   4     3.0572     5.7774   2 SI   1 0 0   2 SI   0-1 0   3 SI   1 1 0
                                    3 SI   1 0 0
   1 SI   2     3.5200     6.6519   6 O    1 1 0   9 O    0-1 0
   1 SI   2     3.5337     6.6777   4 O    0-1 0   7 O    1 1 0
   1 SI   2     3.6341     6.8674   6 O    0 0 0   9 O    0 0 0

   4 O    1     1.6049     3.0328   1 SI   0 0 0
   4 O    1     1.6071     3.0371   3 SI   1 1 0
   4 O    2     2.6105     4.9331   8 O    1 1 0   8 O    1 0 0
   4 O    1     2.6176     4.9465   7 O    0 0 0
   4 O    1     2.6280     4.9662   9 O    0 0 1
   4 O    2     2.6345     4.9785   5 O    1 0 0   6 O    1 1 0


 FINAL OPTIMIZED GEOMETRY - DIMENSIONALITY OF THE SYSTEM      3
 (NON PERIODIC DIRECTION: LATTICE PARAMETER FORMALLY SET TO 500)
 *******************************************************************************
 LATTICE PARAMETERS (ANGSTROMS AND DEGREES) - BOHR = 0.5291772083 ANGSTROM
 PRIMITIVE CELL - CENTRING CODE 1/0 VOLUME=   113.054442 - DENSITY 2.642 g/cm^3
         A              B              C           ALPHA      BETA       GAMMA 
     4.91457896     4.91457896     5.40485895    90.000000  90.000000 120.000000
 *******************************************************************************
 ATOMS IN THE ASYMMETRIC UNIT    2 - ATOMS IN THE UNIT CELL:    9
     ATOM              X/A                 Y/B                 Z/C    
 *******************************************************************************
   1 T  14 SI    4.705925485842E-01  5.551115123126E-17  0.000000000000E+00
   2 F  14 SI    0.000000000000E+00  4.705925485842E-01 -3.333333333333E-01
   3 F  14 SI   -4.705925485842E-01 -4.705925485842E-01  3.333333333333E-01
   4 T   8 O     4.151440131428E-01  2.670973406544E-01  1.199927007933E-01
   5 F   8 O    -2.670973406544E-01  1.480466724884E-01 -2.133406325400E-01
   6 F   8 O    -1.480466724884E-01 -4.151440131428E-01  4.533260341266E-01
   7 F   8 O     1.480466724884E-01 -2.670973406544E-01 -1.199927007933E-01
   8 F   8 O    -4.151440131428E-01 -1.480466724884E-01  2.133406325400E-01
   9 F   8 O     2.670973406544E-01  4.151440131428E-01 -4.533260341266E-01

 T = ATOM BELONGING TO THE ASYMMETRIC UNIT
 INFORMATION **** fort.34 **** GEOMETRY OUTPUT FILE

 DIRECT LATTICE VECTORS CARTESIAN COMPONENTS (ANGSTROM)
          X                    Y                    Z
   0.425615022826E+01  -0.245728948000E+01   0.000000000000E+00
   0.000000000000E+00   0.491457896000E+01   0.000000000000E+00
   0.000000000000E+00   0.000000000000E+00   0.540485895000E+01


 CARTESIAN COORDINATES - PRIMITIVE CELL
 *******************************************************************************
 *      ATOM          X(ANGSTROM)         Y(ANGSTROM)         Z(ANGSTROM)
 *******************************************************************************
   1    14 SI    2.002912583076E+00 -1.156382119002E+00  0.000000000000E+00
   2    14 SI    0.000000000000E+00  2.312764238005E+00 -1.801619650000E+00
   3    14 SI   -2.002912583076E+00 -1.156382119002E+00  1.801619650000E+00
   4     8 O     1.766915286300E+00  2.925419544713E-01  6.485436228173E-01
   5     8 O    -1.136806407395E+00  1.383922547036E+00 -1.153076027183E+00
   6     8 O    -6.301088789053E-01 -1.676464501507E+00  2.450163272817E+00
   7     8 O     6.301088789053E-01 -1.676464501507E+00 -6.485436228173E-01
   8     8 O    -1.766915286300E+00  2.925419544713E-01  1.153076027183E+00
   9     8 O     1.136806407395E+00  1.383922547036E+00 -2.450163272817E+00

 ****   6 SYMMOPS - TRANSLATORS IN FRACTIONARY UNITS
  V INV                   ROTATION MATRICES                       TRANSLATOR
  1  1  1.00  0.00  0.00  0.00  1.00  0.00  0.00  0.00  1.00    0.00  0.00  0.00
  2  3  0.00 -1.00  0.00  1.00 -1.00  0.00  0.00  0.00  1.00    0.00  0.00  0.67
  3  2 -1.00  1.00  0.00 -1.00  0.00  0.00  0.00  0.00  1.00    0.00  0.00  0.33
  4  4  1.00 -1.00  0.00  0.00 -1.00  0.00  0.00  0.00 -1.00    0.00  0.00  0.00
  5  5 -1.00  0.00  0.00 -1.00  1.00  0.00  0.00  0.00 -1.00    0.00  0.00  0.33
  6  6  0.00  1.00  0.00  1.00  0.00  0.00  0.00  0.00 -1.00    0.00  0.00  0.67
 TTTTTTTTTTTTTTTTTTTTTTTTTTTTTT END         TELAPSE     3981.83 TCPU     3052.19
 EEEEEEEEEE TERMINATION  DATE 23 02 2010 TIME 13:27:10.3
NODE    0 CPU TIME =      3052.195
NODE    1 CPU TIME =      3044.562
    TOTAL CPU TIME =      6096.757
Tue Feb 23 13:27:10 GMT 2010
