date Mon Feb 22 15:52:43 GMT 2010
hostname pcphy162
system Linux pcphy162 2.6.31-19-generic #56-Ubuntu SMP Thu Jan 28 01:26:53 UTC 2010 i686 GNU/Linux
user pc229
executable in /home/pc229/bin/Crystal06/bin/Linux-pgf/v1_0_1
temporary directory /home/pc229/bin/Cry_tmp/tmp3196
output in /home/pc229/tmp/CaCo3.out
input data /home/pc229/tmp/CaCo3.d12
Calcite B3LYP BSA 
CRYSTAL
0 0 0
167
5.0492 17.3430
3
220    0.0000000  0.0000000  0.0000000
6     0.0000000  0.0000000  0.2500000
8     0.2564140  0.0000000  0.2500000
OPTGEOM
END
END
220 3
HAYWSC
0 1  3  8.  1.
  5.3568  -1.4687  -0.0794
  1.71    -1.8752   0.2902
  1.0      3.4301   0.1427
0 1 1 2. 1.
  0.500   1.0      1.0
0 3 1 0. 1.
  0.620   1.0
6 4
0 0 6 2.0 1.0
 3048.0    0.001826
  456.4    0.01406
  103.7    0.06876
   29.23   0.2304
    9.349  0.4685
    3.189  0.3628
0 1 2 4.0 1.0
    3.665 -0.3959 0.2365
    0.7705 1.216  0.8606
0 1 1 0.0 1.0
    0.230   1.0    1.0
0 3 1 0.0 1.0
    0.8    1.0
8 5
0 0 8 2.0 1.0
   8020.   0.001080
   1338.   0.008040
    255.4  0.053240
     69.22 0.168100
     23.90 0.358100
     9.264 0.385500
     3.851 0.146800
     1.212 0.072800
0  1  4  6.  1.0
   49.43   -0.008830  0.009580
   10.47   -0.091500  0.069600
   3.235   -0.040200  0.206500
   1.217    0.379000  0.347000
0  1  1  0.  1.0
   0.486    1.      1.
0  1  1  0.  1.0
   0.1925     1.      1.
0  3  1  0.  1.
   0.500  1.
99 0
ENDBS
SCFDIR
SHRINK
4 4
LEVSHIFT
5 0
ENDSCF


         
 *******************************************************************************
 *                                                                             *
 *                                CRYSTAL06                                    *
 *                          Release 1.0 - v1_0_1                               *
 *                                                                             *
 *                          Compiled:  03 ott 2006 08:32                       *
 *                          Xmake: Linux-pgf_P                                 *
 *                                                                             *
 *                                                                             *
 *                              MAIN AUTHORS                                   *
 *                                                                             *
 *        R. DOVESI(1), V.R. SAUNDERS(2), C. ROETTI(1), R. ORLANDO (1,3),      *
 *     C.M. ZICOVICH-WILSON(1,4), F. PASCALE(5), B. CIVALLERI(1), K. DOLL(6),  *
 *        N.M. HARRISON(2,7), I. J. BUSH(2), Ph. D'ARCO(8), M. LLUNELL(9)      *
 *                                                                             *
 * (1) THEORETICAL CHEMISTRY GROUP - UNIVERSITA' DI TORINO - TORINO (ITALY)    *
 *      http://www.crystal.unito.it                                            *
 * (2) COMPUTATIONAL SCIENCE & ENGINEERING DEPARTMENT - CCLRC DARESBURY (UK)   *
 *     http://www.cse.clrc.ac.uk/cmg/CRYSTAL/                                  *
 * (3) UNIVERSITA' DEL PIEMONTE ORIENTALE - ALESSANDRIA (ITALY)                *
 * (4) UNIVERSIDAD AUTONOMA DEL ESTADO DE MORELOS - CUERNAVACA (MEXICO)        *
 * (5) UNIVERSITE' HENRI POINCARE' - NANCY (FRANCE)                            *
 * (6) TU BRAUNSCHWEIG - BRAUNSCHWEIG (GERMANY)                                *
 * (7) IMPERIAL COLLEGE - LONDON (UK)                                          *
 * (8) UNIVERSITE' PIERRE ET MARIE CURIE - PARIS (FRANCE)                      *
 * (9) UNIVERSIDAD DE BARCELONA - BARCELONA (SPAIN)                            *
 *******************************************************************************
 EEEEEEEEEE STARTING  DATE 22 02 2010 TIME 15:52:43.7
 Calcite B3LYP BSA                                                               

 CRYSTAL CALCULATION
 (INPUT ACCORDING TO THE INTERNATIONAL TABLES FOR X-RAY CRYSTALLOGRAPHY)
 CRYSTAL FAMILY                       :  HEXAGONAL   
 CRYSTAL CLASS  (GROTH - 1921)        :  DITRIGONAL SCALENOHEDRAL             

 SPACE GROUP (CENTROSYMMETRIC)        :  R -3 C          

 LATTICE PARAMETERS  (ANGSTROMS AND DEGREES) - CONVENTIONAL CELL
        A           B           C        ALPHA        BETA       GAMMA
     5.04920     5.04920    17.34300    90.00000    90.00000   120.00000


 NUMBER OF IRREDUCIBLE ATOMS IN THE CONVENTIONAL CELL:    3

 INPUT COORDINATES

 ATOM AT. N.              COORDINATES
   1 220     0.000000000000E+00  0.000000000000E+00  0.000000000000E+00
   2   6     0.000000000000E+00  0.000000000000E+00  2.500000000000E-01
   3   8     2.564140000000E-01  0.000000000000E+00  2.500000000000E-01

 *******************************************************************************

 << INFORMATION >>: FROM NOW ON, ALL COORDINATES REFER TO THE PRIMITIVE CELL

 *******************************************************************************

 LATTICE PARAMETERS  (ANGSTROMS AND DEGREES) - PRIMITIVE CELL
       A          B          C         ALPHA     BETA     GAMMA        VOLUME
    6.47442    6.47442    6.47442    45.90086  45.90086  45.90086    127.637635

 COORDINATES OF THE EQUIVALENT ATOMS (FRACTIONARY UNITS)

 N. ATOM EQUIV AT. N.          X                  Y                  Z

   1   1   1  220 CA    0.00000000000E+00  0.00000000000E+00  0.00000000000E+00
   2   1   2  220 CA   -5.00000000000E-01 -5.00000000000E-01 -5.00000000000E-01

   3   2   1    6 C     2.50000000000E-01  2.50000000000E-01  2.50000000000E-01
   4   2   2    6 C    -2.50000000000E-01 -2.50000000000E-01 -2.50000000000E-01

   5   3   1    8 O    -4.93586000000E-01 -6.41400000000E-03  2.50000000000E-01
   6   3   2    8 O     2.50000000000E-01 -4.93586000000E-01 -6.41400000000E-03
   7   3   3    8 O    -6.41400000000E-03  2.50000000000E-01 -4.93586000000E-01
   8   3   4    8 O     4.93586000000E-01  6.41400000000E-03 -2.50000000000E-01
   9   3   5    8 O    -2.50000000000E-01  4.93586000000E-01  6.41400000000E-03
  10   3   6    8 O     6.41400000000E-03 -2.50000000000E-01  4.93586000000E-01

 NUMBER OF SYMMETRY OPERATORS         :   12
 *******************************************************************************
 * GEOMETRY EDITING - INPUT COORDINATES ARE GIVEN IN ANGSTROM          
 *******************************************************************************

 GEOMETRY NOW FULLY CONSISTENT WITH THE GROUP
 *******************************************************************************
 ATOMIC POSITIONS OPTIMIZATION CONTROL

 MAXIMUM GRADIENT COMPONENT   0.00045 MAXIMUM DISPLACEMENT COMPONENT     0.00030
 R.M.S. OF GRADIENT COMPONENT 0.00180 R.M.S. OF DISPLACEMENT COMPONENTS  0.00120
 THRESHOLD ON ENERGY CHANGE 0.100E-06 EXTRAPOLATING POLYNOMIAL ORDER           2
 MAXIMUM ALLOWED NUMBER OF STEPS  100 SORTING OF ENERGY POINTS:               NO
 ANALYTICAL  GRADIENT                 HESSIAN UPDATING                      BFGS
 STEP SIZE NUMERICAL GRADIENT 0.00100
 INITIAL HESSIAN MATRIX: SCHLEGEL MODEL 2
 *******************************************************************************


 GCALCO - MAX INDICES DIRECT LATTICE VECTOR  10  10  10
 NO.OF VECTORS CREATED 2999 STARS  238 RMAX    84.69907 BOHR

 GEOMETRY FOR WAVE FUNCTION - DIMENSIONALITY OF THE SYSTEM    3
 (NON PERIODIC DIRECTION: LATTICE PARAMETER FORMALLY SET TO 500)
 *******************************************************************************
 LATTICE PARAMETERS (ANGSTROMS AND DEGREES) - BOHR = 0.5291772083 ANGSTROM
 PRIMITIVE CELL - CENTRING CODE 7/0 VOLUME=   127.637635 - DENSITY 2.601 g/cm^3
         A              B              C           ALPHA      BETA       GAMMA 
     6.47441899     6.47441899     6.47441899    45.900861  45.900861  45.900861
 *******************************************************************************
 ATOMS IN THE ASYMMETRIC UNIT    3 - ATOMS IN THE UNIT CELL:   10
     ATOM              X/A                 Y/B                 Z/C    
 *******************************************************************************
   1 T 220 CA    0.000000000000E+00  0.000000000000E+00  0.000000000000E+00
   2 F 220 CA    5.000000000000E-01  5.000000000000E-01  5.000000000000E-01
   3 T   6 C     2.500000000000E-01  2.500000000000E-01  2.500000000000E-01
   4 F   6 C    -2.500000000000E-01 -2.500000000000E-01 -2.500000000000E-01
   5 T   8 O    -4.935860000000E-01 -6.414000000000E-03  2.500000000000E-01
   6 F   8 O     2.500000000000E-01 -4.935860000000E-01 -6.414000000000E-03
   7 F   8 O    -6.414000000000E-03  2.500000000000E-01 -4.935860000000E-01
   8 F   8 O     4.935860000000E-01  6.414000000000E-03 -2.500000000000E-01
   9 F   8 O    -2.500000000000E-01  4.935860000000E-01  6.414000000000E-03
  10 F   8 O     6.414000000000E-03 -2.500000000000E-01  4.935860000000E-01

 TRANSFORMATION MATRIX PRIMITIVE-CRYSTALLOGRAPHIC CELL
  1.0000  0.0000  1.0000 -1.0000  1.0000  1.0000  0.0000 -1.0000  1.0000

 *******************************************************************************
 CRYSTALLOGRAPHIC CELL (VOLUME=        382.91290466)
         A              B              C           ALPHA      BETA       GAMMA 
     5.04920000     5.04920000    17.34300000    90.000000  90.000000 120.000000

 COORDINATES IN THE CRYSTALLOGRAPHIC CELL
     ATOM              X/A                 Y/B                 Z/C    
 *******************************************************************************
   1 T 220 CA    0.000000000000E+00  0.000000000000E+00  0.000000000000E+00
   2 F 220 CA    0.000000000000E+00  0.000000000000E+00 -5.000000000000E-01
   3 T   6 C     3.333333333333E-01 -3.333333333333E-01 -8.333333333333E-02
   4 F   6 C    -3.333333333333E-01  3.333333333333E-01  8.333333333333E-02
   5 T   8 O    -4.102526666667E-01 -3.333333333333E-01 -8.333333333333E-02
   6 F   8 O     3.333333333333E-01 -7.691933333333E-02 -8.333333333333E-02
   7 F   8 O     7.691933333333E-02  4.102526666667E-01 -8.333333333333E-02
   8 F   8 O     4.102526666667E-01  3.333333333333E-01  8.333333333333E-02
   9 F   8 O    -3.333333333333E-01  7.691933333333E-02  8.333333333333E-02
  10 F   8 O    -7.691933333333E-02 -4.102526666667E-01  8.333333333333E-02

 T = ATOM BELONGING TO THE ASYMMETRIC UNIT

 ****  12 SYMMOPS - TRANSLATORS IN FRACTIONARY UNITS
  V INV                   ROTATION MATRICES                       TRANSLATOR
  1  1  1.00  0.00  0.00  0.00  1.00  0.00  0.00  0.00  1.00    0.00  0.00  0.00
  2  3  0.00  0.00  1.00  1.00  0.00  0.00  0.00  1.00  0.00    0.00  0.00  0.00
  3  2  0.00  1.00  0.00  0.00  0.00  1.00  1.00  0.00  0.00    0.00  0.00  0.00
  4  4  0.00 -1.00  0.00 -1.00  0.00  0.00  0.00  0.00 -1.00    0.50  0.50  0.50
  5  5 -1.00  0.00  0.00  0.00  0.00 -1.00  0.00 -1.00  0.00    0.50  0.50  0.50
  6  6  0.00  0.00 -1.00  0.00 -1.00  0.00 -1.00  0.00  0.00    0.50  0.50  0.50
  7  7 -1.00  0.00  0.00  0.00 -1.00  0.00  0.00  0.00 -1.00    0.00  0.00  0.00
  8  9  0.00  0.00 -1.00 -1.00  0.00  0.00  0.00 -1.00  0.00    0.00  0.00  0.00
  9  8  0.00 -1.00  0.00  0.00  0.00 -1.00 -1.00  0.00  0.00    0.00  0.00  0.00
 10 10  0.00  1.00  0.00  1.00  0.00  0.00  0.00  0.00  1.00    0.50  0.50  0.50
 11 11  1.00  0.00  0.00  0.00  0.00  1.00  0.00  1.00  0.00    0.50  0.50  0.50
 12 12  0.00  0.00  1.00  0.00  1.00  0.00  1.00  0.00  0.00    0.50  0.50  0.50

 DIRECT LATTICE VECTORS CARTESIAN COMPONENTS (ANGSTROM)
          X                    Y                    Z
   0.291515697919E+01   0.000000000000E+00   0.578100000000E+01
  -0.145757848960E+01   0.252460000000E+01   0.578100000000E+01
  -0.145757848960E+01  -0.252460000000E+01   0.578100000000E+01


 CARTESIAN COORDINATES - PRIMITIVE CELL
 *******************************************************************************
 *      ATOM          X(ANGSTROM)         Y(ANGSTROM)         Z(ANGSTROM)
 *******************************************************************************
   1   220 CA    0.000000000000E+00  0.000000000000E+00  0.000000000000E+00
   2   220 CA    0.000000000000E+00  0.000000000000E+00  8.671500000000E+00
   3     6 C    -2.915156979192E+00  0.000000000000E+00 -1.445250000000E+00
   4     6 C    -1.457578489596E+00 -2.524600000000E+00  1.445250000000E+00
   5     8 O    -1.793926386698E+00 -6.473427844000E-01 -1.445250000000E+00
   6     8 O     1.457578489596E+00 -1.229914431200E+00 -1.445250000000E+00
   7     8 O     3.363478971022E-01  1.877257215600E+00 -1.445250000000E+00
   8     8 O     1.793926386698E+00  6.473427844000E-01  1.445250000000E+00
   9     8 O    -1.457578489596E+00  1.229914431200E+00  1.445250000000E+00
  10     8 O    -3.363478971022E-01 -1.877257215600E+00  1.445250000000E+00

 *******************************************************************************
 *** PSEUDOPOTENTIAL INFORMATION ***
 *******************************************************************************

 ATOMIC NUMBER  20, NUCLEAR CHARGE 10.000, HAY-WADT SMALL CORE  PSEUDOPOTENTIAL
   TYPE        EXPONENT        COEFF.     N        EXPONENT       COEFF.     N
  W0 TMS  1270.4543808  -10.0000000  -1   260.2495057 -136.3684190   0
            59.7068501  -48.3403600   0    17.6818150  -18.5141902   0
             5.9668207   -2.2114740   0
  P0 TMS    18.6029912    3.0000000  -2    21.4138971   11.7228027  -1
             5.6851879   54.2117561   0
  P1 TMS   134.7687233    5.0000000  -2   181.8458004    5.1639340  -1
            80.9240132  442.8686022   0    23.3806993  175.0255989   0
             5.1868564   28.8217434   0

 *******************************************************************************
 LOCAL ATOMIC FUNCTIONS BASIS SET
 *******************************************************************************
   ATOM  X(AU)  Y(AU)  Z(AU)    NO. TYPE  EXPONENT  S COEF   P COEF   D/F/G COEF
 *******************************************************************************
   1 CA  0.000  0.000  0.000
                             1-   4 SP 
                                         5.357E+00-1.469E+00-7.940E-02 0.000E+00
                                         1.710E+00-1.875E+00 2.902E-01 0.000E+00
                                         1.000E+00 3.430E+00 1.427E-01 0.000E+00
                             5-   8 SP 
                                         5.000E-01 1.000E+00 1.000E+00 0.000E+00
                             9-  13 D  
                                         6.200E-01 0.000E+00 0.000E+00 1.000E+00
   2 CA  0.000  0.000 16.387
   3 C  -5.509  0.000 -2.731
                                 27 S  
                                         3.048E+03 1.826E-03 0.000E+00 0.000E+00
                                         4.564E+02 1.406E-02 0.000E+00 0.000E+00
                                         1.037E+02 6.876E-02 0.000E+00 0.000E+00
                                         2.923E+01 2.304E-01 0.000E+00 0.000E+00
                                         9.349E+00 4.685E-01 0.000E+00 0.000E+00
                                         3.189E+00 3.628E-01 0.000E+00 0.000E+00
                            28-  31 SP 
                                         3.665E+00-3.959E-01 2.365E-01 0.000E+00
                                         7.705E-01 1.216E+00 8.606E-01 0.000E+00
                            32-  35 SP 
                                         2.300E-01 1.000E+00 1.000E+00 0.000E+00
                            36-  40 D  
                                         8.000E-01 0.000E+00 0.000E+00 1.000E+00
   4 C  -2.754 -4.771  2.731
   5 O  -3.390 -1.223 -2.731
                                 55 S  
                                         8.020E+03 1.080E-03 0.000E+00 0.000E+00
                                         1.338E+03 8.040E-03 0.000E+00 0.000E+00
                                         2.554E+02 5.324E-02 0.000E+00 0.000E+00
                                         6.922E+01 1.681E-01 0.000E+00 0.000E+00
                                         2.390E+01 3.581E-01 0.000E+00 0.000E+00
                                         9.264E+00 3.855E-01 0.000E+00 0.000E+00
                                         3.851E+00 1.468E-01 0.000E+00 0.000E+00
                                         1.212E+00 7.280E-02 0.000E+00 0.000E+00
                            56-  59 SP 
                                         4.943E+01-8.830E-03 9.580E-03 0.000E+00
                                         1.047E+01-9.150E-02 6.960E-02 0.000E+00
                                         3.235E+00-4.020E-02 2.065E-01 0.000E+00
                                         1.217E+00 3.790E-01 3.470E-01 0.000E+00
                            60-  63 SP 
                                         4.860E-01 1.000E+00 1.000E+00 0.000E+00
                            64-  67 SP 
                                         1.925E-01 1.000E+00 1.000E+00 0.000E+00
                            68-  72 D  
                                         5.000E-01 0.000E+00 0.000E+00 1.000E+00
   6 O   2.754 -2.324 -2.731
   7 O   0.636  3.548 -2.731
   8 O   3.390  1.223  2.731
   9 O  -2.754  2.324  2.731
  10 O  -0.636 -3.548  2.731
 INFORMATION **** READM2 **** FULL DIRECT SCF (MONO AND BIEL INT) SELECTED
 *******************************************************************************
 N. OF ATOMS PER CELL       10  COULOMB OVERLAP TOL         (T1) 10** -6
 NUMBER OF SHELLS           44  COULOMB PENETRATION TOL     (T2) 10** -6
 NUMBER OF AO              162  EXCHANGE OVERLAP TOL        (T3) 10** -6
 N. OF ELECTRONS PER CELL   80  EXCHANGE PSEUDO OVP (F(G))  (T4) 10** -6
 CORE ELECTRONS PER CELL    16  EXCHANGE PSEUDO OVP (P(G))  (T5) 10**-12
 N. OF SYMMETRY OPERATORS   12  POLE ORDER IN MONO ZONE                4
 *******************************************************************************
 TYPE OF CALCULATION :  RESTRICTED CLOSED SHELL
 HARTREE-FOCK HAMILTONIAN
 CORE  PSEUDO POTENTIAL         TOL. ON PSEUDO              (TP) 10**- 6
 EIGENVALUE LEVEL SHIFTING OF  0.500 HARTREE
 *******************************************************************************
 MAX NUMBER OF SCF CYCLES      50  CONVERGENCE ON DELTAP        10**-16
 NO MIXING OF F MATRICES           CONVERGENCE ON ENERGY        10**- 7
 EIGENVALUE LEVEL SHIFTING OF  0.500 HARTREE
 SHRINK. FACT.(MONKH.)    4  4  4  NUMBER OF K POINTS IN THE IBZ     13
 SHRINKING FACTOR(GILAT NET)    4  NUMBER OF K POINTS(GILAT NET)     13
 *******************************************************************************
 *** K POINTS COORDINATES (OBLIQUE COORDINATES IN UNITS OF IS =  4)
   1-R(  0  0  0)   2-C(  1  0  0)   3-R(  2  0  0)   4-C(  1  1  0)
   5-C(  2  1  0)   6-C(  3  1  0)   7-R(  2  2  0)   8-C(  1  1  1)
   9-C(  2  1  1)  10-C(  3  1  1)  11-C(  2  2  1)  12-C(  3  2  1)
  13-R(  2  2  2)

 DIRECT LATTICE VECTORS COMPON. (A.U.)     RECIP. LATTICE VECTORS COMPON. (A.U.) 
        X            Y            Z              X            Y            Z
    5.5088483    0.0000000   10.9245068      0.7603749    0.0000000    0.1917153
   -2.7544242    4.7708026   10.9245068     -0.3801875    0.6585040    0.1917153
   -2.7544242   -4.7708026   10.9245068     -0.3801875   -0.6585040    0.1917153

 DISK SPACE FOR EIGENVECTORS (FTN 10)     577368 REALS

 SYMMETRY ADAPTION OF THE BLOCH FUNCTIONS ENABLED

 DIMENSIONS  P(G)=  183762 F(G)=   32640 P(G),F(G) (IRR)    9631
 MAX G-VECTOR INDEX FOR 1- AND 2-ELECTRON INTEGRALS 177

 TTTTTTTTTTTTTTTTTTTTTTTTTTTTTT INPUT       TELAPSE        0.01 TCPU        0.00

 NEIGHBORS OF THE NON-EQUIVALENT ATOMS

 N = NUMBER OF NEIGHBORS AT DISTANCE R
    ATOM  N     R/ANG      R/AU   NEIGHBORS (ATOM LABELS AND CELL INDICES)
   1 CA   6     2.3929     4.5219   5 O    0 0 0   6 O    0 0 0   7 O    0 0 0
                                    8 O    0 0 0   9 O    0 0 0  10 O    0 0 0
   1 CA   6     3.2537     6.1487   3 C    0 0 0   3 C    1 0-1   3 C    1-1 0
                                    4 C    1 0-1   4 C    0 0 0   4 C    0 1-1
   1 CA   6     3.5019     6.6176   5 O    1 0-1   6 O   -1 1 0   7 O    0-1 1
                                    8 O   -1 0 1   9 O    1-1 0  10 O    0 1-1
   1 CA   6     4.1053     7.7578   2 CA  -1 0 0   2 CA   0-1 0   2 CA   0 0-1
                                    2 CA  -1-1 0   2 CA  -1 0-1   2 CA   0-1-1
   1 CA   2     4.3358     8.1934   3 C    1 0 0   4 C    0 0-1
   1 CA   6     4.3359     8.1937   5 O    1-1 0   6 O    0 1-1   7 O   -1 0 1
                                    8 O   -1 1 0   9 O    0-1 1  10 O    1 0-1

   3 C    3     1.2947     2.4466   5 O    0 0 0   6 O   -1 1 0   7 O   -1 0 1
   3 C    6     3.2537     6.1487   1 CA   0 0 0   1 CA  -1 0 1   1 CA  -1 1 0
                                    2 CA  -1-1 0   2 CA  -1 0-1   2 CA  -2 0 0
   3 C    6     3.4630     6.5441   8 O   -1 0 1   8 O   -1 0 0   9 O    0 0 0
                                    9 O   -1 0 0  10 O   -1 1 0  10 O   -1 0 0
   3 C    3     3.7545     7.0950   5 O   -1 1 0   6 O   -1 0 1   7 O    0 0 0
   3 C    6     4.1053     7.7578   4 C    0 0 0   4 C   -1 1 0   4 C    0 1-1
                                    4 C   -1 0 0   4 C    0 0-1   4 C   -1 1-1
   3 C    6     4.3046     8.1345   8 O   -1 1 0   8 O   -2 0 1   9 O   -1 0 1
                                    9 O    0-1 0  10 O    0 0 0  10 O   -1 1-1

   5 O    1     1.2947     2.4466   3 C    0 0 0
   5 O    2     2.2425     4.2376   6 O   -1 1 0   7 O   -1 0 1
   5 O    2     2.3929     4.5219   1 CA   0 0 0   2 CA  -1-1 0
   5 O    2     3.2379     6.1187   8 O   -1 0 1   8 O   -1 0 0
   5 O    4     3.3033     6.2423   6 O    0 0 0   6 O   -1 0 1   7 O    0 0 0
                                    7 O    0-1 1
   5 O    2     3.4630     6.5441   4 C    0 0 0   4 C    0 0-1


 SYMMETRY ALLOWED INTERNAL DEGREE(S) OF FREEDOM:   1
 TTTTTTTTTTTTTTTTTTTTTTTTTTTTTT SYMM        TELAPSE        0.02 TCPU        0.01
 *******************************************************************************
 COORDINATE OPTIMIZATION - POINT    1
 INFORMATION **** EXCBUF **** EXCH. BIPO BUFFER: WORDS USED =    360000
 WARNING **** EXCBUF **** EXCH. BIPO BUFFER TOO SMALL - TO AVOID I/O SET EXCHSIZE =    398907

 *******************************************************************************
 Calcite B3LYP BSA                                                               
 CRYSTAL - SCF - TYPE OF CALCULATION :  RESTRICTED CLOSED SHELL
 *******************************************************************************
 TTTTTTTTTTTTTTTTTTTTTTTTTTTTTT SDIK        TELAPSE        0.16 TCPU        0.15

 AAAAAAAAAAAAAAAAAAAAAAAAAAAAAAAAAAAAAAAAAAAAAAAAAAAAAAAAAAAAAAAAAAAAAAAAAAAAAAA
         ATOMIC WAVEFUNCTION(S)


 NUCLEAR CHARGE 10.0  SYMMETRY SPECIES            S    P
 N. ELECTRONS   10.0  NUMBER OF PRIMITIVE GTOS    4    4
                      NUMBER OF CONTRACTED GTOS   2    2
                      NUMBER OF CLOSED SHELLS     2    1
                      OPEN SHELL OCCUPATION       0    0

  ZNUC SCFIT  TOTAL HF ENERGY   KINETIC ENERGY   VIRIAL THEOREM ACCURACY
  10.0   5    7.331586539E+01  3.010061214E+01  1.435693502E+00  2.6E-07

 NUCLEAR CHARGE  6.0  SYMMETRY SPECIES            S    P
 N. ELECTRONS    6.0  NUMBER OF PRIMITIVE GTOS    9    3
                      NUMBER OF CONTRACTED GTOS   3    2
                      NUMBER OF CLOSED SHELLS     2    0
                      OPEN SHELL OCCUPATION       0    2

  ZNUC SCFIT  TOTAL HF ENERGY   KINETIC ENERGY   VIRIAL THEOREM ACCURACY
   6.0   8   -3.764592085E+01  3.786959330E+01 -1.994093614E+00  3.3E-06

 NUCLEAR CHARGE  8.0  SYMMETRY SPECIES            S    P
 N. ELECTRONS    8.0  NUMBER OF PRIMITIVE GTOS   14    6
                      NUMBER OF CONTRACTED GTOS   4    3
                      NUMBER OF CLOSED SHELLS     2    0
                      OPEN SHELL OCCUPATION       0    4

  ZNUC SCFIT  TOTAL HF ENERGY   KINETIC ENERGY   VIRIAL THEOREM ACCURACY
   8.0  13   -7.480044816E+01  7.461868841E+01 -2.002435848E+00  2.7E-06

 AAAAAAAAAAAAAAAAAAAAAAAAAAAAAAAAAAAAAAAAAAAAAAAAAAAAAAAAAAAAAAAAAAAAAAAAAAAAAAA

 CHARGE NORMALIZATION FACTOR   1.00000000
 TOTAL ATOMIC CHARGES:
  10.0000000  10.0000000   6.0000000   6.0000000   8.0000000   8.0000000
   8.0000000   8.0000000   8.0000000   8.0000000
 TTTTTTTTTTTTTTTTTTTTTTTTTTTTTT MOQGAD      TELAPSE        0.28 TCPU        0.27
 TTTTTTTTTTTTTTTTTTTTTTTTTTTTTT SHELLX      TELAPSE       15.18 TCPU       14.57
 TTTTTTTTTTTTTTTTTTTTTTTTTTTTTT MONMO3      TELAPSE       15.60 TCPU       15.00
 CYC   0 ETOT(AU) -3.790689397964E+02 DETOT -3.79E+02 tst  0.00E+00 PX  1.00E+00
 TTTTTTTTTTTTTTTTTTTTTTTTTTTTTT FDIK        TELAPSE       16.20 TCPU       15.58
 INSULATING STATE - TOP OF VALENCE BANDS (A.U.) -2.6033017E-01
 TTTTTTTTTTTTTTTTTTTTTTTTTTTTTT PDIG        TELAPSE       16.33 TCPU       15.71
 CHARGE NORMALIZATION FACTOR   1.00000000
 TOTAL ATOMIC CHARGES:
   7.2715296   7.2715296   4.4399354   4.4399354   9.4295117   9.4295117
   9.4295117   9.4295117   9.4295117   9.4295117
 TTTTTTTTTTTTTTTTTTTTTTTTTTTTTT MOQGAD      TELAPSE       16.43 TCPU       15.82
 TTTTTTTTTTTTTTTTTTTTTTTTTTTTTT SHELLX      TELAPSE       31.66 TCPU       31.04
 TTTTTTTTTTTTTTTTTTTTTTTTTTTTTT MONMO3      TELAPSE       32.08 TCPU       31.47
 CYC   1 ETOT(AU) -5.957656633485E+02 DETOT -2.17E+02 tst  0.00E+00 PX  1.00E+00
 TTTTTTTTTTTTTTTTTTTTTTTTTTTTTT FDIK        TELAPSE       32.40 TCPU       31.79
 INSULATING STATE - TOP OF VALENCE BANDS (A.U.) -2.4760913E-01
 TTTTTTTTTTTTTTTTTTTTTTTTTTTTTT PDIG        TELAPSE       32.53 TCPU       31.91
 CHARGE NORMALIZATION FACTOR   1.00000000
 TOTAL ATOMIC CHARGES:
   7.8398486   7.8398486   4.7349758   4.7349758   9.1417252   9.1417252
   9.1417252   9.1417252   9.1417252   9.1417252
 TTTTTTTTTTTTTTTTTTTTTTTTTTTTTT MOQGAD      TELAPSE       32.63 TCPU       32.02
 TTTTTTTTTTTTTTTTTTTTTTTTTTTTTT SHELLX      TELAPSE       47.84 TCPU       47.23
 TTTTTTTTTTTTTTTTTTTTTTTTTTTTTT MONMO3      TELAPSE       48.26 TCPU       47.66
 CYC   2 ETOT(AU) -5.978649919593E+02 DETOT -2.10E+00 tst  5.97E-02 PX  4.28E-01
 TTTTTTTTTTTTTTTTTTTTTTTTTTTTTT FDIK        TELAPSE       48.58 TCPU       47.97
 INSULATING STATE - TOP OF VALENCE BANDS (A.U.) -3.8847698E-01
 TTTTTTTTTTTTTTTTTTTTTTTTTTTTTT PDIG        TELAPSE       48.70 TCPU       48.09
 CHARGE NORMALIZATION FACTOR   1.00000000
 TOTAL ATOMIC CHARGES:
   7.9058755   7.9058755   4.5564023   4.5564023   9.1792408   9.1792408
   9.1792408   9.1792408   9.1792408   9.1792408
 TTTTTTTTTTTTTTTTTTTTTTTTTTTTTT MOQGAD      TELAPSE       48.81 TCPU       48.20
 TTTTTTTTTTTTTTTTTTTTTTTTTTTTTT SHELLX      TELAPSE       64.02 TCPU       63.41
 TTTTTTTTTTTTTTTTTTTTTTTTTTTTTT MONMO3      TELAPSE       64.45 TCPU       63.84
 CYC   3 ETOT(AU) -5.979191615369E+02 DETOT -5.42E-02 tst  1.65E-03 PX  4.62E-02
 TTTTTTTTTTTTTTTTTTTTTTTTTTTTTT FDIK        TELAPSE       64.75 TCPU       64.14
 INSULATING STATE - TOP OF VALENCE BANDS (A.U.) -3.5837290E-01
 TTTTTTTTTTTTTTTTTTTTTTTTTTTTTT PDIG        TELAPSE       64.88 TCPU       64.26
 CHARGE NORMALIZATION FACTOR   1.00000000
 TOTAL ATOMIC CHARGES:
   7.9245041   7.9245041   4.5709469   4.5709469   9.1681830   9.1681830
   9.1681830   9.1681830   9.1681830   9.1681830
 TTTTTTTTTTTTTTTTTTTTTTTTTTTTTT MOQGAD      TELAPSE       64.99 TCPU       64.37
 TTTTTTTTTTTTTTTTTTTTTTTTTTTTTT SHELLX      TELAPSE       80.19 TCPU       79.59
 TTTTTTTTTTTTTTTTTTTTTTTTTTTTTT MONMO3      TELAPSE       80.62 TCPU       80.01
 CYC   4 ETOT(AU) -5.979248102878E+02 DETOT -5.65E-03 tst  2.45E-04 PX  9.68E-03
 TTTTTTTTTTTTTTTTTTTTTTTTTTTTTT FDIK        TELAPSE       80.92 TCPU       80.31
 INSULATING STATE - TOP OF VALENCE BANDS (A.U.) -3.6680621E-01
 TTTTTTTTTTTTTTTTTTTTTTTTTTTTTT PDIG        TELAPSE       81.05 TCPU       80.44
 CHARGE NORMALIZATION FACTOR   1.00000000
 TOTAL ATOMIC CHARGES:
   7.9291306   7.9291306   4.5568043   4.5568043   9.1713550   9.1713550
   9.1713550   9.1713550   9.1713550   9.1713550
 TTTTTTTTTTTTTTTTTTTTTTTTTTTTTT MOQGAD      TELAPSE       81.16 TCPU       80.55
 TTTTTTTTTTTTTTTTTTTTTTTTTTTTTT SHELLX      TELAPSE       96.36 TCPU       95.76
 TTTTTTTTTTTTTTTTTTTTTTTTTTTTTT MONMO3      TELAPSE       96.79 TCPU       96.18
 CYC   5 ETOT(AU) -5.979256760675E+02 DETOT -8.66E-04 tst  4.92E-05 PX  4.24E-03
 TTTTTTTTTTTTTTTTTTTTTTTTTTTTTT FDIK        TELAPSE       97.08 TCPU       96.47
 INSULATING STATE - TOP OF VALENCE BANDS (A.U.) -3.6529937E-01
 TTTTTTTTTTTTTTTTTTTTTTTTTTTTTT PDIG        TELAPSE       97.20 TCPU       96.60
 CHARGE NORMALIZATION FACTOR   1.00000000
 TOTAL ATOMIC CHARGES:
   7.9305790   7.9305790   4.5573550   4.5573550   9.1706887   9.1706887
   9.1706887   9.1706887   9.1706887   9.1706887
 TTTTTTTTTTTTTTTTTTTTTTTTTTTTTT MOQGAD      TELAPSE       97.31 TCPU       96.70
 TTTTTTTTTTTTTTTTTTTTTTTTTTTTTT SHELLX      TELAPSE      112.52 TCPU      111.92
 TTTTTTTTTTTTTTTTTTTTTTTTTTTTTT MONMO3      TELAPSE      112.94 TCPU      112.34
 CYC   6 ETOT(AU) -5.979258670052E+02 DETOT -1.91E-04 tst  1.58E-05 PX  3.15E-03
 TTTTTTTTTTTTTTTTTTTTTTTTTTTTTT FDIK        TELAPSE      113.23 TCPU      112.63
 INSULATING STATE - TOP OF VALENCE BANDS (A.U.) -3.6599881E-01
 TTTTTTTTTTTTTTTTTTTTTTTTTTTTTT PDIG        TELAPSE      113.35 TCPU      112.75
 CHARGE NORMALIZATION FACTOR   1.00000000
 TOTAL ATOMIC CHARGES:
   7.9309589   7.9309589   4.5560961   4.5560961   9.1709817   9.1709817
   9.1709817   9.1709817   9.1709817   9.1709817
 TTTTTTTTTTTTTTTTTTTTTTTTTTTTTT MOQGAD      TELAPSE      113.46 TCPU      112.86
 TTTTTTTTTTTTTTTTTTTTTTTTTTTTTT SHELLX      TELAPSE      128.67 TCPU      128.06
 TTTTTTTTTTTTTTTTTTTTTTTTTTTTTT MONMO3      TELAPSE      129.09 TCPU      128.48
 CYC   7 ETOT(AU) -5.979259226482E+02 DETOT -5.56E-05 tst  4.79E-06 PX  2.47E-03
 TTTTTTTTTTTTTTTTTTTTTTTTTTTTTT FDIK        TELAPSE      129.37 TCPU      128.77
 INSULATING STATE - TOP OF VALENCE BANDS (A.U.) -3.6596272E-01
 TTTTTTTTTTTTTTTTTTTTTTTTTTTTTT PDIG        TELAPSE      129.49 TCPU      128.89
 CHARGE NORMALIZATION FACTOR   1.00000000
 TOTAL ATOMIC CHARGES:
   7.9310723   7.9310723   4.5559719   4.5559719   9.1709853   9.1709853
   9.1709853   9.1709853   9.1709853   9.1709853
 TTTTTTTTTTTTTTTTTTTTTTTTTTTTTT MOQGAD      TELAPSE      129.60 TCPU      129.00
 TTTTTTTTTTTTTTTTTTTTTTTTTTTTTT SHELLX      TELAPSE      144.81 TCPU      144.20
 TTTTTTTTTTTTTTTTTTTTTTTTTTTTTT MONMO3      TELAPSE      145.23 TCPU      144.63
 CYC   8 ETOT(AU) -5.979259427768E+02 DETOT -2.01E-05 tst  2.26E-06 PX  2.39E-03
 TTTTTTTTTTTTTTTTTTTTTTTTTTTTTT FDIK        TELAPSE      145.51 TCPU      144.91
 INSULATING STATE - TOP OF VALENCE BANDS (A.U.) -3.6602937E-01
 TTTTTTTTTTTTTTTTTTTTTTTTTTTTTT PDIG        TELAPSE      145.63 TCPU      145.03
 CHARGE NORMALIZATION FACTOR   1.00000000
 TOTAL ATOMIC CHARGES:
   7.9311080   7.9311080   4.5556083   4.5556083   9.1710946   9.1710946
   9.1710946   9.1710946   9.1710946   9.1710946
 TTTTTTTTTTTTTTTTTTTTTTTTTTTTTT MOQGAD      TELAPSE      145.74 TCPU      145.14
 TTTTTTTTTTTTTTTTTTTTTTTTTTTTTT SHELLX      TELAPSE      160.95 TCPU      160.34
 TTTTTTTTTTTTTTTTTTTTTTTTTTTTTT MONMO3      TELAPSE      161.37 TCPU      160.77
 CYC   9 ETOT(AU) -5.979259525375E+02 DETOT -9.76E-06 tst  1.09E-06 PX  2.36E-03
 TTTTTTTTTTTTTTTTTTTTTTTTTTTTTT FDIK        TELAPSE      161.65 TCPU      161.05
 INSULATING STATE - TOP OF VALENCE BANDS (A.U.) -3.6602559E-01
 TTTTTTTTTTTTTTTTTTTTTTTTTTTTTT PDIG        TELAPSE      161.78 TCPU      161.18
 CHARGE NORMALIZATION FACTOR   1.00000000
 TOTAL ATOMIC CHARGES:
   7.9311287   7.9311287   4.5553082   4.5553082   9.1711877   9.1711877
   9.1711877   9.1711877   9.1711877   9.1711877
 TTTTTTTTTTTTTTTTTTTTTTTTTTTTTT MOQGAD      TELAPSE      161.88 TCPU      161.29
 TTTTTTTTTTTTTTTTTTTTTTTTTTTTTT SHELLX      TELAPSE      177.10 TCPU      176.50
 TTTTTTTTTTTTTTTTTTTTTTTTTTTTTT MONMO3      TELAPSE      177.52 TCPU      176.92
 CYC  10 ETOT(AU) -5.979259582329E+02 DETOT -5.70E-06 tst  5.39E-07 PX  2.37E-03
 TTTTTTTTTTTTTTTTTTTTTTTTTTTTTT FDIK        TELAPSE      177.80 TCPU      177.20
 INSULATING STATE - TOP OF VALENCE BANDS (A.U.) -3.6602366E-01
 TTTTTTTTTTTTTTTTTTTTTTTTTTTTTT PDIG        TELAPSE      177.92 TCPU      177.32
 CHARGE NORMALIZATION FACTOR   1.00000000
 TOTAL ATOMIC CHARGES:
   7.9311372   7.9311372   4.5549759   4.5549759   9.1712957   9.1712957
   9.1712957   9.1712957   9.1712957   9.1712957
 TTTTTTTTTTTTTTTTTTTTTTTTTTTTTT MOQGAD      TELAPSE      178.03 TCPU      177.43
 TTTTTTTTTTTTTTTTTTTTTTTTTTTTTT SHELLX      TELAPSE      193.24 TCPU      192.64
 TTTTTTTTTTTTTTTTTTTTTTTTTTTTTT MONMO3      TELAPSE      193.67 TCPU      193.07
 CYC  11 ETOT(AU) -5.979259623885E+02 DETOT -4.16E-06 tst  2.70E-07 PX  2.42E-03
 TTTTTTTTTTTTTTTTTTTTTTTTTTTTTT FDIK        TELAPSE      193.95 TCPU      193.34
 INSULATING STATE - TOP OF VALENCE BANDS (A.U.) -3.6600731E-01
 TTTTTTTTTTTTTTTTTTTTTTTTTTTTTT PDIG        TELAPSE      194.07 TCPU      193.46
 CHARGE NORMALIZATION FACTOR   1.00000000
 TOTAL ATOMIC CHARGES:
   7.9311436   7.9311436   4.5546126   4.5546126   9.1714146   9.1714146
   9.1714146   9.1714146   9.1714146   9.1714146
 TTTTTTTTTTTTTTTTTTTTTTTTTTTTTT MOQGAD      TELAPSE      194.18 TCPU      193.57
 TTTTTTTTTTTTTTTTTTTTTTTTTTTTTT SHELLX      TELAPSE      209.39 TCPU      208.79
 TTTTTTTTTTTTTTTTTTTTTTTTTTTTTT MONMO3      TELAPSE      209.81 TCPU      209.22
 CYC  12 ETOT(AU) -5.979259656274E+02 DETOT -3.24E-06 tst  1.38E-07 PX  2.48E-03
 TTTTTTTTTTTTTTTTTTTTTTTTTTTTTT FDIK        TELAPSE      210.10 TCPU      209.49
 INSULATING STATE - TOP OF VALENCE BANDS (A.U.) -3.6599166E-01
 TTTTTTTTTTTTTTTTTTTTTTTTTTTTTT PDIG        TELAPSE      210.22 TCPU      209.62
 CHARGE NORMALIZATION FACTOR   1.00000000
 TOTAL ATOMIC CHARGES:
   7.9311457   7.9311457   4.5542661   4.5542661   9.1715294   9.1715294
   9.1715294   9.1715294   9.1715294   9.1715294
 TTTTTTTTTTTTTTTTTTTTTTTTTTTTTT MOQGAD      TELAPSE      210.33 TCPU      209.73
 TTTTTTTTTTTTTTTTTTTTTTTTTTTTTT SHELLX      TELAPSE      225.54 TCPU      224.94
 TTTTTTTTTTTTTTTTTTTTTTTTTTTTTT MONMO3      TELAPSE      225.96 TCPU      225.36
 CYC  13 ETOT(AU) -5.979259684204E+02 DETOT -2.79E-06 tst  7.11E-08 PX  2.57E-03
 TTTTTTTTTTTTTTTTTTTTTTTTTTTTTT FDIK        TELAPSE      226.25 TCPU      225.64
 INSULATING STATE - TOP OF VALENCE BANDS (A.U.) -3.6597081E-01
 TTTTTTTTTTTTTTTTTTTTTTTTTTTTTT PDIG        TELAPSE      226.37 TCPU      225.77
 CHARGE NORMALIZATION FACTOR   1.00000000
 TOTAL ATOMIC CHARGES:
   7.9311492   7.9311492   4.5538639   4.5538639   9.1716623   9.1716623
   9.1716623   9.1716623   9.1716623   9.1716623
 TTTTTTTTTTTTTTTTTTTTTTTTTTTTTT MOQGAD      TELAPSE      226.48 TCPU      225.88
 TTTTTTTTTTTTTTTTTTTTTTTTTTTTTT SHELLX      TELAPSE      241.69 TCPU      241.09
 TTTTTTTTTTTTTTTTTTTTTTTTTTTTTT MONMO3      TELAPSE      242.12 TCPU      241.52
 CYC  14 ETOT(AU) -5.979259707594E+02 DETOT -2.34E-06 tst  7.49E-08 PX  2.66E-03
 TTTTTTTTTTTTTTTTTTTTTTTTTTTTTT FDIK        TELAPSE      242.40 TCPU      241.80
 INSULATING STATE - TOP OF VALENCE BANDS (A.U.) -3.6594998E-01
 TTTTTTTTTTTTTTTTTTTTTTTTTTTTTT PDIG        TELAPSE      242.52 TCPU      241.92
 CHARGE NORMALIZATION FACTOR   1.00000000
 TOTAL ATOMIC CHARGES:
   7.9311441   7.9311441   4.5534657   4.5534657   9.1717967   9.1717967
   9.1717967   9.1717967   9.1717967   9.1717967
 TTTTTTTTTTTTTTTTTTTTTTTTTTTTTT MOQGAD      TELAPSE      242.63 TCPU      242.03
 TTTTTTTTTTTTTTTTTTTTTTTTTTTTTT SHELLX      TELAPSE      257.84 TCPU      257.24
 TTTTTTTTTTTTTTTTTTTTTTTTTTTTTT MONMO3      TELAPSE      258.27 TCPU      257.67
 CYC  15 ETOT(AU) -5.979259728760E+02 DETOT -2.12E-06 tst  8.67E-08 PX  2.75E-03
 TTTTTTTTTTTTTTTTTTTTTTTTTTTTTT FDIK        TELAPSE      258.55 TCPU      257.96
 INSULATING STATE - TOP OF VALENCE BANDS (A.U.) -3.6592574E-01
 TTTTTTTTTTTTTTTTTTTTTTTTTTTTTT PDIG        TELAPSE      258.67 TCPU      258.08
 CHARGE NORMALIZATION FACTOR   1.00000000
 TOTAL ATOMIC CHARGES:
   7.9311437   7.9311437   4.5530478   4.5530478   9.1719362   9.1719362
   9.1719362   9.1719362   9.1719362   9.1719362
 TTTTTTTTTTTTTTTTTTTTTTTTTTTTTT MOQGAD      TELAPSE      258.78 TCPU      258.19
 TTTTTTTTTTTTTTTTTTTTTTTTTTTTTT SHELLX      TELAPSE      273.99 TCPU      273.40
 TTTTTTTTTTTTTTTTTTTTTTTTTTTTTT MONMO3      TELAPSE      274.42 TCPU      273.82
 CYC  16 ETOT(AU) -5.979259743132E+02 DETOT -1.44E-06 tst  9.82E-08 PX  2.85E-03
 TTTTTTTTTTTTTTTTTTTTTTTTTTTTTT FDIK        TELAPSE      274.70 TCPU      274.10
 INSULATING STATE - TOP OF VALENCE BANDS (A.U.) -3.6590279E-01
 TTTTTTTTTTTTTTTTTTTTTTTTTTTTTT PDIG        TELAPSE      274.82 TCPU      274.22
 CHARGE NORMALIZATION FACTOR   1.00000000
 TOTAL ATOMIC CHARGES:
   7.9311365   7.9311365   4.5526154   4.5526154   9.1720827   9.1720827
   9.1720827   9.1720827   9.1720827   9.1720827
 TTTTTTTTTTTTTTTTTTTTTTTTTTTTTT MOQGAD      TELAPSE      274.93 TCPU      274.33
 TTTTTTTTTTTTTTTTTTTTTTTTTTTTTT SHELLX      TELAPSE      290.14 TCPU      289.55
 TTTTTTTTTTTTTTTTTTTTTTTTTTTTTT MONMO3      TELAPSE      290.57 TCPU      289.98
 CYC  17 ETOT(AU) -5.979259754472E+02 DETOT -1.13E-06 tst  1.10E-07 PX  2.94E-03
 TTTTTTTTTTTTTTTTTTTTTTTTTTTTTT FDIK        TELAPSE      290.85 TCPU      290.26
 INSULATING STATE - TOP OF VALENCE BANDS (A.U.) -3.6587400E-01
 TTTTTTTTTTTTTTTTTTTTTTTTTTTTTT PDIG        TELAPSE      290.97 TCPU      290.38
 CHARGE NORMALIZATION FACTOR   1.00000000
 TOTAL ATOMIC CHARGES:
   7.9311315   7.9311315   4.5521736   4.5521736   9.1722316   9.1722316
   9.1722316   9.1722316   9.1722316   9.1722316
 TTTTTTTTTTTTTTTTTTTTTTTTTTTTTT MOQGAD      TELAPSE      291.08 TCPU      290.49
 TTTTTTTTTTTTTTTTTTTTTTTTTTTTTT SHELLX      TELAPSE      306.29 TCPU      305.70
 TTTTTTTTTTTTTTTTTTTTTTTTTTTTTT MONMO3      TELAPSE      306.72 TCPU      306.12
 CYC  18 ETOT(AU) -5.979259758078E+02 DETOT -3.61E-07 tst  1.19E-07 PX  3.04E-03
 TTTTTTTTTTTTTTTTTTTTTTTTTTTTTT FDIK        TELAPSE      307.00 TCPU      306.41
 INSULATING STATE - TOP OF VALENCE BANDS (A.U.) -3.6584835E-01
 TTTTTTTTTTTTTTTTTTTTTTTTTTTTTT PDIG        TELAPSE      307.12 TCPU      306.53
 CHARGE NORMALIZATION FACTOR   1.00000000
 TOTAL ATOMIC CHARGES:
   7.9311244   7.9311244   4.5516906   4.5516906   9.1723950   9.1723950
   9.1723950   9.1723950   9.1723950   9.1723950
 TTTTTTTTTTTTTTTTTTTTTTTTTTTTTT MOQGAD      TELAPSE      307.23 TCPU      306.64
 TTTTTTTTTTTTTTTTTTTTTTTTTTTTTT SHELLX      TELAPSE      322.53 TCPU      321.93
 TTTTTTTTTTTTTTTTTTTTTTTTTTTTTT MONMO3      TELAPSE      322.96 TCPU      322.35
 CYC  19 ETOT(AU) -5.979259758114E+02 DETOT -3.59E-09 tst  1.27E-07 PX  3.15E-03
 TTTTTTTTTTTTTTTTTTTTTTTTTTTTTT FDIK        TELAPSE      323.24 TCPU      322.64
 INSULATING STATE - TOP OF VALENCE BANDS (A.U.) -3.6581516E-01
 TTTTTTTTTTTTTTTTTTTTTTTTTTTTTT PDIG        TELAPSE      323.36 TCPU      322.76
 CHARGE NORMALIZATION FACTOR   1.00000000
 TOTAL ATOMIC CHARGES:
   7.9311152   7.9311152   4.5512190   4.5512190   9.1725553   9.1725553
   9.1725553   9.1725553   9.1725553   9.1725553
 TTTTTTTTTTTTTTTTTTTTTTTTTTTTTT MOQGAD      TELAPSE      323.47 TCPU      322.87
 TTTTTTTTTTTTTTTTTTTTTTTTTTTTTT SHELLX      TELAPSE      338.79 TCPU      338.18
 +++ ENERGIES IN A.U. +++
 ::: EXT EL-POLE                                  -1.1060093731720E+03
 ::: EXT EL-SPHEROPOLE                             1.2464254976625E+01
 ::: BIELET ZONE E-E                               1.1914586051450E+03
 ::: TOTAL E-E                                     9.7913486949549E+01
 ::: TOTAL E-N + N-E                              -1.0684474234130E+03
 ::: TOTAL N-N                                    -1.7804818518103E+02
 ::: KINETIC ENERGY                                5.5065614724469E+02
 ::: TOTAL   ENERGY                               -5.9792597439976E+02
 ::: VIRIAL COEFFICIENT                            9.5884506099799E-01
 TTTTTTTTTTTTTTTTTTTTTTTTTTTTTT MONMO3      TELAPSE      339.21 TCPU      338.60
 CYC  20 ETOT(AU) -5.979259743998E+02 DETOT  1.41E-06 tst  1.32E-07 PX  3.15E-03

 == SCF ENDED - CONVERGENCE ON ENERGY      E(AU) -5.9792597439976E+02 CYCLES  20

 TOTAL ENERGY(HF)(AU)(  20) -5.9792597439976E+02 DE 1.4E-06 tst 1.3E-07 PX 3.1E-03

 *******************************************************************************
 *                             FORCE CALCULATION                               *
 *******************************************************************************

 INFORMATION **** EXCPOG **** EXCH. BIPO BUFFER LENGTH (WORDS) =   1440000
 WARNING **** EXCPOG **** EXCH. BIPO BUFFER TOO SMALL - TO AVOID I/O SET EXCHSIZE =    398907
 INFORMATION **** GENPOG **** BIPO BUFFER LENGTH (WORDS) =    211400
 TTTTTTTTTTTTTTTTTTTTTTTTTTTTTT SHELXG      TELAPSE      520.06 TCPU      517.00

 CARTESIAN FORCES (ANALYTICAL)
   ATOM                     X                   Y                   Z
   1 220            -1.572815951552E-15 -4.810966440042E-16 -4.440892098501E-16
   2 220            -7.401486830834E-16 -1.147230458779E-15 -2.664535259100E-15
   3   6            -3.168761549451E-15  2.377727644406E-15  1.584095992871E-14
   4   6             3.279783851913E-15 -2.669161188370E-15 -9.902937766104E-18
   5   8            -3.022647496104E-02  1.745126345541E-02 -3.462950201459E-15
   6   8            -6.790864167291E-15 -3.490252691083E-02 -9.510276081126E-15
   7   8             3.022647496105E-02  1.745126345542E-02 -1.204147549454E-14
   8   8             3.022647496104E-02 -1.745126345541E-02  6.510995446500E-15
   9   8             4.052314039882E-15  3.490252691083E-02  1.986258379993E-15
  10   8            -3.022647496105E-02 -1.745126345541E-02  3.387914948583E-15

 RESULTANT FORCE    -1.387778780781E-15 -5.863365348802E-16 -4.071004800524E-16

ATOMIC PART

 SYMMETRY ALLOWED FORCES (ANALYTICAL) (DIRECTION, FORCE)

    1 -8.5493382E-02

CELL PART

 THERE ARE NO SYMMETRY ALLOWED DIRECTIONS
 TTTTTTTTTTTTTTTTTTTTTTTTTTTTTT TOTGRA      TELAPSE      528.66 TCPU      525.46
 *******************************************************************************
 LATTICE PARAMETERS (ANGSTROMS AND DEGREES) - BOHR = 0.5291772083 ANGSTROM
 PRIMITIVE CELL - CENTRING CODE 7/0 VOLUME=   127.637635 - DENSITY 2.601 g/cm^3
         A              B              C           ALPHA      BETA       GAMMA 
     6.47441899     6.47441899     6.47441899    45.900861  45.900861  45.900861
 *******************************************************************************
 ATOMS IN THE ASYMMETRIC UNIT    3 - ATOMS IN THE UNIT CELL:   10
     ATOM              X/A                 Y/B                 Z/C    
 *******************************************************************************
   1 T 220 CA    0.000000000000E+00  0.000000000000E+00  0.000000000000E+00
   2 F 220 CA    5.000000000000E-01  5.000000000000E-01  5.000000000000E-01
   3 T   6 C     2.500000000000E-01  2.500000000000E-01  2.500000000000E-01
   4 F   6 C    -2.500000000000E-01 -2.500000000000E-01 -2.500000000000E-01
   5 T   8 O    -4.935860000000E-01 -6.414000000000E-03  2.500000000000E-01
   6 F   8 O     2.500000000000E-01 -4.935860000000E-01 -6.414000000000E-03
   7 F   8 O    -6.414000000000E-03  2.500000000000E-01 -4.935860000000E-01
   8 F   8 O     4.935860000000E-01  6.414000000000E-03 -2.500000000000E-01
   9 F   8 O    -2.500000000000E-01  4.935860000000E-01  6.414000000000E-03
  10 F   8 O     6.414000000000E-03 -2.500000000000E-01  4.935860000000E-01

 TRANSFORMATION MATRIX PRIMITIVE-CRYSTALLOGRAPHIC CELL
  1.0000  0.0000  1.0000 -1.0000  1.0000  1.0000  0.0000 -1.0000  1.0000

 *******************************************************************************
 CRYSTALLOGRAPHIC CELL (VOLUME=        382.91290466)
         A              B              C           ALPHA      BETA       GAMMA 
     5.04920000     5.04920000    17.34300000    90.000000  90.000000 120.000000

 COORDINATES IN THE CRYSTALLOGRAPHIC CELL
     ATOM              X/A                 Y/B                 Z/C    
 *******************************************************************************
   1 T 220 CA    0.000000000000E+00  0.000000000000E+00  0.000000000000E+00
   2 F 220 CA    0.000000000000E+00  0.000000000000E+00 -5.000000000000E-01
   3 T   6 C     3.333333333333E-01 -3.333333333333E-01 -8.333333333333E-02
   4 F   6 C    -3.333333333333E-01  3.333333333333E-01  8.333333333333E-02
   5 T   8 O    -4.102526666667E-01 -3.333333333333E-01 -8.333333333333E-02
   6 F   8 O     3.333333333333E-01 -7.691933333333E-02 -8.333333333333E-02
   7 F   8 O     7.691933333333E-02  4.102526666667E-01 -8.333333333333E-02
   8 F   8 O     4.102526666667E-01  3.333333333333E-01  8.333333333333E-02
   9 F   8 O    -3.333333333333E-01  7.691933333333E-02  8.333333333333E-02
  10 F   8 O    -7.691933333333E-02 -4.102526666667E-01  8.333333333333E-02

 T = ATOM BELONGING TO THE ASYMMETRIC UNIT
 INFORMATION **** opta001 **** GEOMETRY OUTPUT FILE
 CLASSICAL MODEL (SCHLEGEL) USED AS INITIAL HESSIAN MATRIX
 REFERENCE GEOMETRY DEFINED

 MAX GRADIENT      0.085493  THRESHOLD              0.000450 CONVERGED NO
 RMS GRADIENT      0.085493  THRESHOLD              0.000300 CONVERGED NO

 GRADIENT NORM     0.085493  GRADIENT THRESHOLD     0.500000

 PREDICTED ENERGY CHANGE    -0.140E-03

 INITIAL DISPLACEMENTS
 -0.001648
 TTTTTTTTTTTTTTTTTTTTTTTTTTTTTT OPTI        TELAPSE      528.82 TCPU      525.56

 OPTOPTOPTOPTOPTOPTOPTOPTOPTOPTOPTOPTOPTOPTOPTOPTOPTOPTOPTOPTOPTOPTOPTOPTOPTOPT

 STARTING GEOMETRY OPTIMIZATION - INFORMATION ON SCF MOVED TO SCFOUT.LOG
 GEOMETRY OPTIMIZATION INFORMATION STORED IN OPTINFO.DAT

 OPTOPTOPTOPTOPTOPTOPTOPTOPTOPTOPTOPTOPTOPTOPTOPTOPTOPTOPTOPTOPTOPTOPTOPTOPTOPT
 *******************************************************************************
 COORDINATE OPTIMIZATION - POINT    2
 *******************************************************************************
 LATTICE PARAMETERS (ANGSTROMS AND DEGREES) - BOHR = 0.5291772083 ANGSTROM
 PRIMITIVE CELL - CENTRING CODE 7/0 VOLUME=   127.637635 - DENSITY 2.601 g/cm^3
         A              B              C           ALPHA      BETA       GAMMA 
     6.47441899     6.47441899     6.47441899    45.900861  45.900861  45.900861
 *******************************************************************************
 ATOMS IN THE ASYMMETRIC UNIT    3 - ATOMS IN THE UNIT CELL:   10
     ATOM              X/A                 Y/B                 Z/C    
 *******************************************************************************
   1 T 220 CA    1.515624165152E-21 -7.578120825760E-22 -7.578120825760E-22
   2 F 220 CA    5.000000000000E-01  5.000000000000E-01  5.000000000000E-01
   3 T   6 C     2.500000000000E-01  2.500000000000E-01  2.500000000000E-01
   4 F   6 C    -2.500000000000E-01 -2.500000000000E-01 -2.500000000000E-01
   5 T   8 O    -4.936565039393E-01 -6.343496060733E-03  2.500000000000E-01
   6 F   8 O     2.500000000000E-01 -4.936565039393E-01 -6.343496060733E-03
   7 F   8 O    -6.343496060733E-03  2.500000000000E-01 -4.936565039393E-01
   8 F   8 O     4.936565039393E-01  6.343496060733E-03 -2.500000000000E-01
   9 F   8 O    -2.500000000000E-01  4.936565039393E-01  6.343496060733E-03
  10 F   8 O     6.343496060733E-03 -2.500000000000E-01  4.936565039393E-01

 TRANSFORMATION MATRIX PRIMITIVE-CRYSTALLOGRAPHIC CELL
  1.0000  0.0000  1.0000 -1.0000  1.0000  1.0000  0.0000 -1.0000  1.0000

 *******************************************************************************
 CRYSTALLOGRAPHIC CELL (VOLUME=        382.91290466)
         A              B              C           ALPHA      BETA       GAMMA 
     5.04920000     5.04920000    17.34300000    90.000000  90.000000 120.000000

 COORDINATES IN THE CRYSTALLOGRAPHIC CELL
     ATOM              X/A                 Y/B                 Z/C    
 *******************************************************************************
   1 T 220 CA    1.515624165152E-21  7.578120825760E-22  0.000000000000E+00
   2 F 220 CA    1.515624165152E-21  7.578120825760E-22 -5.000000000000E-01
   3 T   6 C     3.333333333333E-01 -3.333333333333E-01 -8.333333333333E-02
   4 F   6 C    -3.333333333333E-01  3.333333333333E-01  8.333333333333E-02
   5 T   8 O    -4.103231706059E-01 -3.333333333333E-01 -8.333333333333E-02
   6 F   8 O     3.333333333333E-01 -7.698983727260E-02 -8.333333333333E-02
   7 F   8 O     7.698983727260E-02  4.103231706059E-01 -8.333333333333E-02
   8 F   8 O     4.103231706059E-01  3.333333333333E-01  8.333333333333E-02
   9 F   8 O    -3.333333333333E-01  7.698983727260E-02  8.333333333333E-02
  10 F   8 O    -7.698983727260E-02 -4.103231706059E-01  8.333333333333E-02

 T = ATOM BELONGING TO THE ASYMMETRIC UNIT
 INFORMATION **** OPTGEN **** WF DATA SAVED IN FORT.9
 ERROR **** OPTGEN **** SCF FAILED - OPTGEOM STOP
 TTTTTTTTTTTTTTTTTTTTTTTTTTTTTT ERR         TELAPSE     1366.78 TCPU     1355.58
Mon Feb 22 16:15:30 GMT 2010
total 5364
-rw-r--r-- 1 pc229 pc229 2006672 2010-02-22 16:14 fort.10
-rw-r--r-- 1 pc229 pc229   96444 2010-02-22 16:01 fort.12
-rw-r--r-- 1 pc229 pc229  108432 2010-02-22 16:01 fort.19
-rw-r--r-- 1 pc229 pc229  339004 2010-02-22 16:01 fort.20
-rw-r--r-- 1 pc229 pc229    3336 2010-02-22 16:01 fort.33
-rw-r--r-- 1 pc229 pc229  363616 2010-02-22 16:01 fort.38
-rw-r--r-- 1 pc229 pc229     332 2010-02-22 16:15 fort.7
-rw-r--r-- 1 pc229 pc229 2006672 2010-02-22 16:15 fort.8
-rw-r--r-- 1 pc229 pc229  339004 2010-02-22 16:15 fort.9
-rw-r--r-- 1 pc229 pc229   87872 2010-02-22 16:14 fort.95
-rw-r--r-- 1 pc229 pc229   77056 2010-02-22 16:01 fort.96
-rw-r--r-- 1 pc229 pc229    3369 2010-02-22 16:01 opta001
-rw-r--r-- 1 pc229 pc229   39004 2010-02-22 16:15 SCFOUT.LOG
wave function binary file /home/pc229/tmp/CaCo3.f9
Mon Feb 22 16:15:30 GMT 2010
file SCFOUT.LOG saved as /home/pc229/tmp/CaCo3.SCFLOG
file fort.20 saved as /home/pc229/tmp/CaCo3.f20
file fort.33 saved as /home/pc229/tmp/CaCo3.xyz
file optaxxx saved as /home/pc229/tmp/CaCo3.optstory/opta001
/home/pc229/bin/Cry_tmp/tmp3196 removed
