/home/fmg/bin_local/P_CRYSTAL06/Pcrystal
/home/fmg/bin_local/P_CRYSTAL06_tmp/tmp_p3734
SiO2 , Chabazite
CRYSTAL
0 1 0
166
9.42 94.47
5
14 .1045 .334 .8755
8 .262 -.262 .0
8 .1580 -.1580 .5000
8 .2520 .2520 .8970
8 .0250 .0250 .3210
END
14  6
 0 0 8 2. 1.0
 87645.8       0.000237
 12851.8       0.00192
 2786.28       0.0109
  728.043      0.0496
  219.516      0.1668
   75.9006     0.363
   29.4602     0.4051
   11.9891     0.1504
 0 1 6 8. 1.0
  165.958     -0.00884    0.00909
   39.3727    -0.0859     0.0601
   12.7112    -0.0712     0.1952
    4.7177     0.4147     0.3384
    1.8482     0.6168     0.3006
    0.7365     0.1154     0.0648
 0 1 3 2 1.
    4.1752    -0.0199    -0.0087
    1.4472    -0.1864    -0.00438
    0.5023     0.0967     0.2207
 0 1 1 0. 1.
    0.322 1. 1.
 0 1 1 0. 1.
    0.13 1. 1.
 0 3 1 0. 1.
    0.6      1.
8 4
0 0 8 2.0 1.0
 8020.0       0.00108
 1338.0       0.00804
  255.4       0.05324
   69.22      0.1681
   23.90      0.3581
    9.264     0.3855
    3.851     0.1468
    1.212     0.0728
0 1 4 7.0 1.0
   49.43     -0.00883    0.00958
   10.47     -0.0915     0.0696
    3.235    -0.0402     0.2065
    1.217     0.379      0.347
0 1 1 0.0 1.0
    0.4764     1.0        1.0
0 1 1 0.0 1.0
    0.1802     1.0        1.0
99 0
END
SHRINK
4 4 
FMIXING
70
LEVSHIFT
16 0
END
Tue Feb 23 04:04:15 EST 2010
 PROCESS            0  OF           16  WORKING
 PROCESS            2  OF           16  WORKING
 PROCESS            5  OF           16  WORKING
 PROCESS           11  OF           16  WORKING
 PROCESS           12  OF           16  WORKING
 PROCESS            1  OF           16  WORKING
 PROCESS            6  OF           16  WORKING
 PROCESS           14  OF           16  WORKING
 PROCESS           13  OF           16  WORKING
 PROCESS            4  OF           16  WORKING
 PROCESS            3  OF           16  WORKING
 PROCESS            9  OF           16  WORKING
 PROCESS            7  OF           16  WORKING
 PROCESS            8  OF           16  WORKING
 PROCESS           15  OF           16  WORKING
 PROCESS           10  OF           16  WORKING

         
 *******************************************************************************
 *                                                                             *
 *                                CRYSTAL06                                    *
 *                              Release : 1.0                                  *
 *                      V1.0.2 - parallel executable                           *
 *                                                                             *
 *                                                                             *
 *                                                                             *
 *                              MAIN AUTHORS                                   *
 *                                                                             *
 *    R. DOVESI(1,10), V.R. SAUNDERS(2), C. ROETTI(1,10), R. ORLANDO (1,3),    *
 *  C.M. ZICOVICH-WILSON(1,4), F. PASCALE(5), B. CIVALLERI(1,10), K. DOLL(6),  *
 *       N.M. HARRISON(2,7), I. J. BUSH(2), Ph. D'ARCO(8), M. LLUNELL(9)       *
 *                                                                             *
 * (1) THEORETICAL CHEMISTRY GROUP - UNIVERSITA' DI TORINO - TORINO (ITALY)    *
 *      http://www.crystal.unito.it                                            *
 * (2) COMPUTATIONAL SCIENCE & ENGINEERING DEPARTMENT - CCLRC DARESBURY (UK)   *
 *     http://www.cse.clrc.ac.uk/cmg/CRYSTAL/                                  *
 * (3) UNIVERSITA' DEL PIEMONTE ORIENTALE - ALESSANDRIA (ITALY)                *
 * (4) UNIVERSIDAD AUTONOMA DEL ESTADO DE MORELOS - CUERNAVACA (MEXICO)        *
 * (5) UNIVERSITE' HENRI POINCARE' - NANCY (FRANCE)                            *
 * (6) MPI FUER FESTKOERPERFORSCHUNG - STUTTGART (GERMANY)                     *
 * (7) IMPERIAL COLLEGE - LONDON (UK)                                          *
 * (8) UNIVERSITE' PIERRE ET MARIE CURIE - PARIS (FRANCE)                      *
 * (9) UNIVERSIDAD DE BARCELONA - BARCELONA (SPAIN)                            *
 *(10) NIS - NANOSTRUCTURED INTERFACES AND SURFACES - TORINO (ITALY)           *
 *     http://www.crystal.unito.it                                             *
 *******************************************************************************
 EEEEEEEEEE STARTING  DATE 23 02 2010 TIME 04:04:22.8
 SiO2 , Chabazite                                                                

 CRYSTAL CALCULATION
 (INPUT ACCORDING TO THE INTERNATIONAL TABLES FOR X-RAY CRYSTALLOGRAPHY)
 CRYSTAL FAMILY                       :  HEXAGONAL   
 CRYSTAL CLASS  (GROTH - 1921)        :  DITRIGONAL SCALENOHEDRAL             

 SPACE GROUP (CENTROSYMMETRIC)        :  R -3 M          

 LATTICE PARAMETERS  (ANGSTROMS AND DEGREES) - CONVENTIONAL CELL
        A           B           C        ALPHA        BETA       GAMMA
     9.42000     9.42000     9.42000    94.47000    94.47000    94.47000


 NUMBER OF IRREDUCIBLE ATOMS IN THE CONVENTIONAL CELL:    5

 INPUT COORDINATES

 ATOM AT. N.              COORDINATES
   1  14     1.045000000000E-01  3.340000000000E-01  8.755000000000E-01
   2   8     2.620000000000E-01 -2.620000000000E-01  0.000000000000E+00
   3   8     1.580000000000E-01 -1.580000000000E-01  5.000000000000E-01
   4   8     2.520000000000E-01  2.520000000000E-01  8.970000000000E-01
   5   8     2.500000000000E-02  2.500000000000E-02  3.210000000000E-01

 *******************************************************************************

 << INFORMATION >>: FROM NOW ON, ALL COORDINATES REFER TO THE PRIMITIVE CELL

 *******************************************************************************

 LATTICE PARAMETERS  (ANGSTROMS AND DEGREES) - PRIMITIVE CELL
       A          B          C         ALPHA     BETA     GAMMA        VOLUME
    9.42000    9.42000    9.42000    94.47000  94.47000  94.47000    827.846306

 COORDINATES OF THE EQUIVALENT ATOMS (FRACTIONARY UNITS)

 N. ATOM EQUIV AT. N.          X                  Y                  Z

   1   1   1   14 SI    1.04500000000E-01  3.34000000000E-01 -1.24500000000E-01
   2   1   2   14 SI   -1.24500000000E-01  1.04500000000E-01  3.34000000000E-01
   3   1   3   14 SI    3.34000000000E-01 -1.24500000000E-01  1.04500000000E-01
   4   1   4   14 SI   -3.34000000000E-01 -1.04500000000E-01  1.24500000000E-01
   5   1   5   14 SI   -1.04500000000E-01  1.24500000000E-01 -3.34000000000E-01
   6   1   6   14 SI    1.24500000000E-01 -3.34000000000E-01 -1.04500000000E-01
   7   1   7   14 SI   -1.04500000000E-01 -3.34000000000E-01  1.24500000000E-01
   8   1   8   14 SI    1.24500000000E-01 -1.04500000000E-01 -3.34000000000E-01
   9   1   9   14 SI   -3.34000000000E-01  1.24500000000E-01 -1.04500000000E-01
  10   1  10   14 SI    3.34000000000E-01  1.04500000000E-01 -1.24500000000E-01
  11   1  11   14 SI    1.04500000000E-01 -1.24500000000E-01  3.34000000000E-01
  12   1  12   14 SI   -1.24500000000E-01  3.34000000000E-01  1.04500000000E-01

  13   2   1    8 O     2.62000000000E-01 -2.62000000000E-01  0.00000000000E+00
  14   2   2    8 O     0.00000000000E+00  2.62000000000E-01 -2.62000000000E-01
  15   2   3    8 O    -2.62000000000E-01  0.00000000000E+00  2.62000000000E-01
  16   2   4    8 O    -2.62000000000E-01  2.62000000000E-01  0.00000000000E+00
  17   2   5    8 O     0.00000000000E+00 -2.62000000000E-01  2.62000000000E-01
  18   2   6    8 O     2.62000000000E-01  0.00000000000E+00 -2.62000000000E-01

  19   3   1    8 O     1.58000000000E-01 -1.58000000000E-01 -5.00000000000E-01
  20   3   2    8 O    -5.00000000000E-01  1.58000000000E-01 -1.58000000000E-01
  21   3   3    8 O    -1.58000000000E-01 -5.00000000000E-01  1.58000000000E-01
  22   3   4    8 O    -1.58000000000E-01  1.58000000000E-01  5.00000000000E-01
  23   3   5    8 O     5.00000000000E-01 -1.58000000000E-01  1.58000000000E-01
  24   3   6    8 O     1.58000000000E-01  5.00000000000E-01 -1.58000000000E-01

  25   4   1    8 O     2.52000000000E-01  2.52000000000E-01 -1.03000000000E-01
  26   4   2    8 O    -1.03000000000E-01  2.52000000000E-01  2.52000000000E-01
  27   4   3    8 O     2.52000000000E-01 -1.03000000000E-01  2.52000000000E-01
  28   4   4    8 O    -2.52000000000E-01 -2.52000000000E-01  1.03000000000E-01
  29   4   5    8 O    -2.52000000000E-01  1.03000000000E-01 -2.52000000000E-01
  30   4   6    8 O     1.03000000000E-01 -2.52000000000E-01 -2.52000000000E-01

  31   5   1    8 O     2.50000000000E-02  2.50000000000E-02  3.21000000000E-01
  32   5   2    8 O     3.21000000000E-01  2.50000000000E-02  2.50000000000E-02
  33   5   3    8 O     2.50000000000E-02  3.21000000000E-01  2.50000000000E-02
  34   5   4    8 O    -2.50000000000E-02 -2.50000000000E-02 -3.21000000000E-01
  35   5   5    8 O    -2.50000000000E-02 -3.21000000000E-01 -2.50000000000E-02
  36   5   6    8 O    -3.21000000000E-01 -2.50000000000E-02 -2.50000000000E-02

 NUMBER OF SYMMETRY OPERATORS         :   12
 *******************************************************************************
 * GEOMETRY EDITING - INPUT COORDINATES ARE GIVEN IN ANGSTROM          
 *******************************************************************************

 GEOMETRY NOW FULLY CONSISTENT WITH THE GROUP

 GCALCO - MAX INDICES DIRECT LATTICE VECTOR  14  14  14
 NO.OF VECTORS CREATED 6999 STARS  551 RMAX   210.49149 BOHR

 GEOMETRY FOR WAVE FUNCTION - DIMENSIONALITY OF THE SYSTEM    3
 (NON PERIODIC DIRECTION: LATTICE PARAMETER FORMALLY SET TO 500)
 *******************************************************************************
 LATTICE PARAMETERS (ANGSTROMS AND DEGREES) - BOHR = 0.5291772083 ANGSTROM
 PRIMITIVE CELL - CENTRING CODE 7/0 VOLUME=   827.846306 - DENSITY 1.443 g/cm^3
         A              B              C           ALPHA      BETA       GAMMA 
     9.42000000     9.42000000     9.42000000    94.470000  94.470000  94.470000
 *******************************************************************************
 ATOMS IN THE ASYMMETRIC UNIT    5 - ATOMS IN THE UNIT CELL:   36
     ATOM              X/A                 Y/B                 Z/C    
 *******************************************************************************
   1 T  14 SI    1.045000000000E-01  3.340000000000E-01 -1.245000000000E-01
   2 F  14 SI   -1.245000000000E-01  1.045000000000E-01  3.340000000000E-01
   3 F  14 SI    3.340000000000E-01 -1.245000000000E-01  1.045000000000E-01
   4 F  14 SI   -3.340000000000E-01 -1.045000000000E-01  1.245000000000E-01
   5 F  14 SI   -1.045000000000E-01  1.245000000000E-01 -3.340000000000E-01
   6 F  14 SI    1.245000000000E-01 -3.340000000000E-01 -1.045000000000E-01
   7 F  14 SI   -1.045000000000E-01 -3.340000000000E-01  1.245000000000E-01
   8 F  14 SI    1.245000000000E-01 -1.045000000000E-01 -3.340000000000E-01
   9 F  14 SI   -3.340000000000E-01  1.245000000000E-01 -1.045000000000E-01
  10 F  14 SI    3.340000000000E-01  1.045000000000E-01 -1.245000000000E-01
  11 F  14 SI    1.045000000000E-01 -1.245000000000E-01  3.340000000000E-01
  12 F  14 SI   -1.245000000000E-01  3.340000000000E-01  1.045000000000E-01
  13 T   8 O     2.620000000000E-01 -2.620000000000E-01  9.251858538543E-18
  14 F   8 O     0.000000000000E+00  2.620000000000E-01 -2.620000000000E-01
  15 F   8 O    -2.620000000000E-01 -3.135351459616E-17  2.620000000000E-01
  16 F   8 O    -2.620000000000E-01  2.620000000000E-01 -2.010023415728E-17
  17 F   8 O     0.000000000000E+00 -2.620000000000E-01  2.620000000000E-01
  18 F   8 O     2.620000000000E-01  3.135351459616E-17 -2.620000000000E-01
  19 T   8 O     1.580000000000E-01 -1.580000000000E-01 -5.000000000000E-01
  20 F   8 O    -5.000000000000E-01  1.580000000000E-01 -1.580000000000E-01
  21 F   8 O    -1.580000000000E-01 -5.000000000000E-01  1.580000000000E-01
  22 F   8 O    -1.580000000000E-01  1.580000000000E-01 -5.000000000000E-01
  23 F   8 O    -5.000000000000E-01 -1.580000000000E-01  1.580000000000E-01
  24 F   8 O     1.580000000000E-01 -5.000000000000E-01 -1.580000000000E-01
  25 T   8 O     2.520000000000E-01  2.520000000000E-01 -1.030000000000E-01
  26 F   8 O    -1.030000000000E-01  2.520000000000E-01  2.520000000000E-01
  27 F   8 O     2.520000000000E-01 -1.030000000000E-01  2.520000000000E-01
  28 F   8 O    -2.520000000000E-01 -2.520000000000E-01  1.030000000000E-01
  29 F   8 O    -2.520000000000E-01  1.030000000000E-01 -2.520000000000E-01
  30 F   8 O     1.030000000000E-01 -2.520000000000E-01 -2.520000000000E-01
  31 T   8 O     2.500000000000E-02  2.500000000000E-02  3.210000000000E-01
  32 F   8 O     3.210000000000E-01  2.500000000000E-02  2.500000000000E-02
  33 F   8 O     2.500000000000E-02  3.210000000000E-01  2.500000000000E-02
  34 F   8 O    -2.500000000000E-02 -2.500000000000E-02 -3.210000000000E-01
  35 F   8 O    -2.500000000000E-02 -3.210000000000E-01 -2.500000000000E-02
  36 F   8 O    -3.210000000000E-01 -2.500000000000E-02 -2.500000000000E-02

 TRANSFORMATION MATRIX PRIMITIVE-CRYSTALLOGRAPHIC CELL
  1.0000  0.0000  1.0000 -1.0000  1.0000  1.0000  0.0000 -1.0000  1.0000

 *******************************************************************************
 CRYSTALLOGRAPHIC CELL (VOLUME=       2483.53891704)
         A              B              C           ALPHA      BETA       GAMMA 
    13.83128755    13.83128755    14.99046543    90.000000  90.000000 120.000000

 COORDINATES IN THE CRYSTALLOGRAPHIC CELL
     ATOM              X/A                 Y/B                 Z/C    
 *******************************************************************************
   1 T  14 SI   -1.666666666666E-04  2.291666666667E-01  1.046666666667E-01
   2 F  14 SI   -2.291666666667E-01 -2.293333333333E-01  1.046666666667E-01
   3 F  14 SI    2.293333333333E-01  1.666666666666E-04  1.046666666667E-01
   4 F  14 SI   -2.293333333333E-01 -2.291666666667E-01 -1.046666666667E-01
   5 F  14 SI    1.666666666666E-04  2.293333333333E-01 -1.046666666667E-01
   6 F  14 SI    2.291666666667E-01 -1.666666666666E-04 -1.046666666667E-01
   7 F  14 SI    1.666666666667E-04 -2.291666666667E-01 -1.046666666667E-01
   8 F  14 SI    2.291666666667E-01  2.293333333333E-01 -1.046666666667E-01
   9 F  14 SI   -2.293333333333E-01 -1.666666666666E-04 -1.046666666667E-01
  10 F  14 SI    2.293333333333E-01  2.291666666667E-01  1.046666666667E-01
  11 F  14 SI   -1.666666666666E-04 -2.293333333333E-01  1.046666666667E-01
  12 F  14 SI   -2.291666666667E-01  1.666666666666E-04  1.046666666667E-01
  13 T   8 O     2.620000000000E-01  0.000000000000E+00  9.251858538543E-18
  14 F   8 O     0.000000000000E+00  2.620000000000E-01  0.000000000000E+00
  15 F   8 O    -2.620000000000E-01 -2.620000000000E-01 -3.135351459616E-17
  16 F   8 O    -2.620000000000E-01  2.775557561563E-17  7.655341458344E-18
  17 F   8 O     0.000000000000E+00 -2.620000000000E-01  0.000000000000E+00
  18 F   8 O     2.620000000000E-01  2.620000000000E-01  3.135351459616E-17
  19 T   8 O    -8.666666666667E-03 -3.333333333333E-01  1.666666666667E-01
  20 F   8 O     3.333333333333E-01  3.246666666667E-01  1.666666666667E-01
  21 F   8 O    -3.246666666667E-01  8.666666666667E-03  1.666666666667E-01
  22 F   8 O    -3.246666666667E-01 -3.333333333333E-01  1.666666666667E-01
  23 F   8 O     3.333333333333E-01  8.666666666667E-03  1.666666666667E-01
  24 F   8 O    -8.666666666667E-03  3.246666666667E-01  1.666666666667E-01
  25 T   8 O     1.183333333333E-01  2.366666666667E-01  1.336666666667E-01
  26 F   8 O    -2.366666666667E-01 -1.183333333333E-01  1.336666666667E-01
  27 F   8 O     1.183333333333E-01 -1.183333333333E-01  1.336666666667E-01
  28 F   8 O    -1.183333333333E-01 -2.366666666667E-01 -1.336666666667E-01
  29 F   8 O    -1.183333333333E-01  1.183333333333E-01 -1.336666666667E-01
  30 F   8 O     2.366666666667E-01  1.183333333333E-01 -1.336666666667E-01
  31 T   8 O    -9.866666666667E-02 -1.973333333333E-01  1.236666666667E-01
  32 F   8 O     1.973333333333E-01  9.866666666667E-02  1.236666666667E-01
  33 F   8 O    -9.866666666667E-02  9.866666666667E-02  1.236666666667E-01
  34 F   8 O     9.866666666667E-02  1.973333333333E-01 -1.236666666667E-01
  35 F   8 O     9.866666666667E-02 -9.866666666667E-02 -1.236666666667E-01
  36 F   8 O    -1.973333333333E-01 -9.866666666667E-02 -1.236666666667E-01

 T = ATOM BELONGING TO THE ASYMMETRIC UNIT

 ****  12 SYMMOPS - TRANSLATORS IN FRACTIONARY UNITS
  V INV                   ROTATION MATRICES                       TRANSLATOR
  1  1  1.00  0.00  0.00  0.00  1.00  0.00  0.00  0.00  1.00    0.00  0.00  0.00
  2  3  0.00  0.00  1.00  1.00  0.00  0.00  0.00  1.00  0.00    0.00  0.00  0.00
  3  2  0.00  1.00  0.00  0.00  0.00  1.00  1.00  0.00  0.00    0.00  0.00  0.00
  4  4  0.00 -1.00  0.00 -1.00  0.00  0.00  0.00  0.00 -1.00    0.00  0.00  0.00
  5  5 -1.00  0.00  0.00  0.00  0.00 -1.00  0.00 -1.00  0.00    0.00  0.00  0.00
  6  6  0.00  0.00 -1.00  0.00 -1.00  0.00 -1.00  0.00  0.00    0.00  0.00  0.00
  7  7 -1.00  0.00  0.00  0.00 -1.00  0.00  0.00  0.00 -1.00    0.00  0.00  0.00
  8  9  0.00  0.00 -1.00 -1.00  0.00  0.00  0.00 -1.00  0.00    0.00  0.00  0.00
  9  8  0.00 -1.00  0.00  0.00  0.00 -1.00 -1.00  0.00  0.00    0.00  0.00  0.00
 10 10  0.00  1.00  0.00  1.00  0.00  0.00  0.00  0.00  1.00    0.00  0.00  0.00
 11 11  1.00  0.00  0.00  0.00  0.00  1.00  0.00  1.00  0.00    0.00  0.00  0.00
 12 12  0.00  0.00  1.00  0.00  1.00  0.00  1.00  0.00  0.00    0.00  0.00  0.00

 DIRECT LATTICE VECTORS CARTESIAN COMPONENTS (ANGSTROM)
          X                    Y                    Z
   0.798549759281E+01   0.000000000000E+00   0.499682180943E+01
  -0.399274879641E+01   0.691564377723E+01   0.499682180943E+01
  -0.399274879641E+01  -0.691564377723E+01   0.499682180943E+01


 CARTESIAN COORDINATES - PRIMITIVE CELL
 *******************************************************************************
 *      ATOM          X(ANGSTROM)         Y(ANGSTROM)         Z(ANGSTROM)
 *******************************************************************************
   1    14 SI   -1.996374398202E-03  3.170822671862E+00  1.569002048162E+00
   2    14 SI   -2.745014797529E+00 -1.587140246875E+00  1.569002048162E+00
   3    14 SI    2.747011171927E+00 -1.583682424987E+00  1.569002048162E+00
   4    14 SI   -2.747011171927E+00 -1.583682424987E+00 -1.569002048162E+00
   5    14 SI    1.996374398202E-03  3.170822671862E+00 -1.569002048162E+00
   6    14 SI    2.745014797529E+00 -1.587140246875E+00 -1.569002048162E+00
   7    14 SI    1.996374398203E-03 -3.170822671862E+00 -1.569002048162E+00
   8    14 SI    2.745014797529E+00  1.587140246875E+00 -1.569002048162E+00
   9    14 SI   -2.747011171927E+00  1.583682424987E+00 -1.569002048162E+00
  10    14 SI    2.747011171927E+00  1.583682424987E+00  1.569002048162E+00
  11    14 SI   -1.996374398202E-03 -3.170822671862E+00  1.569002048162E+00
  12    14 SI   -2.745014797529E+00  1.587140246875E+00  1.569002048162E+00
  13     8 O     3.138300553975E+00 -1.811898669635E+00  1.386896655695E-16
  14     8 O     0.000000000000E+00  3.623797339270E+00  0.000000000000E+00
  15     8 O    -3.138300553975E+00 -1.811898669635E+00 -4.700037766092E-16
  16     8 O    -3.138300553975E+00  1.811898669635E+00  1.147571314731E-16
  17     8 O     0.000000000000E+00 -3.623797339270E+00  0.000000000000E+00
  18     8 O     3.138300553975E+00  1.811898669635E+00  4.700037766092E-16
  19     8 O    -1.038114687065E-01 -4.550493605420E+00  2.498410904716E+00
  20     8 O     3.992748796405E+00  2.185343433606E+00  2.498410904716E+00
  21     8 O    -3.888937327699E+00  2.365150171814E+00  2.498410904716E+00
  22     8 O    -3.888937327699E+00 -2.365150171814E+00  2.498410904716E+00
  23     8 O     3.992748796405E+00 -2.185343433606E+00  2.498410904716E+00
  24     8 O    -1.038114687065E-01  4.550493605420E+00  2.498410904716E+00
  25     8 O     1.417425822724E+00  2.455053540918E+00  2.003725545582E+00
  26     8 O    -2.834851645448E+00  0.000000000000E+00  2.003725545582E+00
  27     8 O     1.417425822724E+00 -2.455053540918E+00  2.003725545582E+00
  28     8 O    -1.417425822724E+00 -2.455053540918E+00 -2.003725545582E+00
  29     8 O    -1.417425822724E+00  2.455053540918E+00 -2.003725545582E+00
  30     8 O     2.834851645448E+00  0.000000000000E+00 -2.003725545582E+00
  31     8 O    -1.181853643736E+00 -2.047030558061E+00  1.853820891299E+00
  32     8 O     2.363707287472E+00  1.762514162285E-16  1.853820891299E+00
  33     8 O    -1.181853643736E+00  2.047030558061E+00  1.853820891299E+00
  34     8 O     1.181853643736E+00  2.047030558061E+00 -1.853820891299E+00
  35     8 O     1.181853643736E+00 -2.047030558061E+00 -1.853820891299E+00
  36     8 O    -2.363707287472E+00  1.762514162285E-16 -1.853820891299E+00

 *******************************************************************************
 LOCAL ATOMIC FUNCTIONS BASIS SET
 *******************************************************************************
   ATOM  X(AU)  Y(AU)  Z(AU)    NO. TYPE  EXPONENT  S COEF   P COEF   D/F/G COEF
 *******************************************************************************
   1 SI -0.004  5.992  2.965
                                  1 S  
                                         8.765E+04 2.370E-04 0.000E+00 0.000E+00
                                         1.285E+04 1.920E-03 0.000E+00 0.000E+00
                                         2.786E+03 1.090E-02 0.000E+00 0.000E+00
                                         7.280E+02 4.960E-02 0.000E+00 0.000E+00
                                         2.195E+02 1.668E-01 0.000E+00 0.000E+00
                                         7.590E+01 3.630E-01 0.000E+00 0.000E+00
                                         2.946E+01 4.051E-01 0.000E+00 0.000E+00
                                         1.199E+01 1.504E-01 0.000E+00 0.000E+00
                             2-   5 SP 
                                         1.660E+02-8.840E-03 9.090E-03 0.000E+00
                                         3.937E+01-8.590E-02 6.010E-02 0.000E+00
                                         1.271E+01-7.120E-02 1.952E-01 0.000E+00
                                         4.718E+00 4.147E-01 3.384E-01 0.000E+00
                                         1.848E+00 6.168E-01 3.006E-01 0.000E+00
                                         7.365E-01 1.154E-01 6.480E-02 0.000E+00
                             6-   9 SP 
                                         4.175E+00-1.990E-02-8.700E-03 0.000E+00
                                         1.447E+00-1.864E-01-4.380E-03 0.000E+00
                                         5.023E-01 9.670E-02 2.207E-01 0.000E+00
                            10-  13 SP 
                                         3.220E-01 1.000E+00 1.000E+00 0.000E+00
                            14-  17 SP 
                                         1.300E-01 1.000E+00 1.000E+00 0.000E+00
                            18-  22 D  
                                         6.000E-01 0.000E+00 0.000E+00 1.000E+00
   2 SI -5.187 -2.999  2.965
   3 SI  5.191 -2.993  2.965
   4 SI -5.191 -2.993 -2.965
   5 SI  0.004  5.992 -2.965
   6 SI  5.187 -2.999 -2.965
   7 SI  0.004 -5.992 -2.965
   8 SI  5.187  2.999 -2.965
   9 SI -5.191  2.993 -2.965
  10 SI  5.191  2.993  2.965
  11 SI -0.004 -5.992  2.965
  12 SI -5.187  2.999  2.965
  13 O   5.931 -3.424  0.000
                                265 S  
                                         8.020E+03 1.080E-03 0.000E+00 0.000E+00
                                         1.338E+03 8.040E-03 0.000E+00 0.000E+00
                                         2.554E+02 5.324E-02 0.000E+00 0.000E+00
                                         6.922E+01 1.681E-01 0.000E+00 0.000E+00
                                         2.390E+01 3.581E-01 0.000E+00 0.000E+00
                                         9.264E+00 3.855E-01 0.000E+00 0.000E+00
                                         3.851E+00 1.468E-01 0.000E+00 0.000E+00
                                         1.212E+00 7.280E-02 0.000E+00 0.000E+00
                           266- 269 SP 
                                         4.943E+01-8.830E-03 9.580E-03 0.000E+00
                                         1.047E+01-9.150E-02 6.960E-02 0.000E+00
                                         3.235E+00-4.020E-02 2.065E-01 0.000E+00
                                         1.217E+00 3.790E-01 3.470E-01 0.000E+00
                           270- 273 SP 
                                         4.764E-01 1.000E+00 1.000E+00 0.000E+00
                           274- 277 SP 
                                         1.802E-01 1.000E+00 1.000E+00 0.000E+00
  14 O   0.000  6.848  0.000
  15 O  -5.931 -3.424  0.000
  16 O  -5.931  3.424  0.000
  17 O   0.000 -6.848  0.000
  18 O   5.931  3.424  0.000
  19 O  -0.196 -8.599  4.721
  20 O   7.545  4.130  4.721
  21 O  -7.349  4.469  4.721
  22 O  -7.349 -4.469  4.721
  23 O   7.545 -4.130  4.721
  24 O  -0.196  8.599  4.721
  25 O   2.679  4.639  3.786
  26 O  -5.357  0.000  3.786
  27 O   2.679 -4.639  3.786
  28 O  -2.679 -4.639 -3.786
  29 O  -2.679  4.639 -3.786
  30 O   5.357  0.000 -3.786
  31 O  -2.233 -3.868  3.503
  32 O   4.467  0.000  3.503
  33 O  -2.233  3.868  3.503
  34 O   2.233  3.868 -3.503
  35 O   2.233 -3.868 -3.503
  36 O  -4.467  0.000 -3.503
 *******************************************************************************
 N. OF ATOMS PER CELL       36  COULOMB OVERLAP TOL         (T1) 10** -6
 NUMBER OF SHELLS          168  COULOMB PENETRATION TOL     (T2) 10** -6
 NUMBER OF AO              576  EXCHANGE OVERLAP TOL        (T3) 10** -6
 N. OF ELECTRONS PER CELL  360  EXCHANGE PSEUDO OVP (F(G))  (T4) 10** -6
 CORE ELECTRONS PER CELL   168  EXCHANGE PSEUDO OVP (P(G))  (T5) 10**-12
 N. OF SYMMETRY OPERATORS   12  POLE ORDER IN MONO ZONE                4
 *******************************************************************************
 TYPE OF CALCULATION :  RESTRICTED CLOSED SHELL
 HARTREE-FOCK HAMILTONIAN
 EIGENVALUE LEVEL SHIFTING OF  1.600 HARTREE

 CAPPA: IS1=  4 IS2=  4 IS3=  4K POINTS MONKHORST NET   13 SYMMOPS K SPACE 12 SYMMOPS G SPACE 12


 CAPPA1: ISJ1=  4 ISJ2=  4 ISJ3=  4K POINTS GILAT NET   13 SYMMOPS K SPACE 12 SYMMOPS G SPACE 12

 *******************************************************************************
 MAX NUMBER OF SCF CYCLES      50  CONVERGENCE ON DELTAP        10**-16
 WEIGHT OF F(I) IN F(I+1)      70% CONVERGENCE ON ENERGY        10**- 6
 EIGENVALUE LEVEL SHIFTING OF  1.600 HARTREE
 SHRINK. FACT.(MONKH.)    4  4  4  NUMBER OF K POINTS IN THE IBZ     13
 SHRINKING FACTOR(GILAT NET)    4  NUMBER OF K POINTS(GILAT NET)     13
 *******************************************************************************
 *** K POINTS COORDINATES (OBLIQUE COORDINATES IN UNITS OF IS =  4)
   1-R(  0  0  0)   2-C(  1  0  0)   3-R(  2  0  0)   4-C(  1  1  0)
   5-C(  2  1  0)   6-C(  3  1  0)   7-R(  2  2  0)   8-C(  1  1  1)
   9-C(  2  1  1)  10-C(  3  1  1)  11-C(  2  2  1)  12-C(  3  2  1)
  13-R(  2  2  2)

 DIRECT LATTICE VECTORS COMPON. (A.U.)     RECIP. LATTICE VECTORS COMPON. (A.U.) 
        X            Y            Z              X            Y            Z
   15.0904035    0.0000000    9.4426248      0.2775797    0.0000000    0.2218022
   -7.5452017   13.0686728    9.4426248     -0.1387899    0.2403911    0.2218022
   -7.5452017  -13.0686728    9.4426248     -0.1387899   -0.2403911    0.2218022

 DISK SPACE FOR EIGENVECTORS (FTN 10)    7299072 REALS

 SYMMETRY ADAPTION OF THE BLOCH FUNCTIONS ENABLED
 TTTTTTTTTTTTTTTTTTTTTTTTTTTTTT gordsh1     TELAPSE        6.42 TCPU        0.12

 DIMENSIONS  P(G)=  517698 F(G)=   99948 P(G),F(G) (IRR)   23324
 MAX G-VECTOR INDEX FOR 1- AND 2-ELECTRON INTEGRALS  27

 WARNING **** GENBUF **** COULOMB BIPO BUFFER TOO SMALL - TO AVOID I/O SET BIPOSIZE =   2519700
 TTTTTTTTTTTTTTTTTTTTTTTTTTTTTT INPUT       TELAPSE        6.69 TCPU        0.12

 NEIGHBORS OF THE NON-EQUIVALENT ATOMS

 N = NUMBER OF NEIGHBORS AT DISTANCE R
    ATOM  N     R/ANG      R/AU   NEIGHBORS (ATOM LABELS AND CELL INDICES)
   1 SI   1     1.6331     3.0861  14 O    0 0 0
   1 SI   1     1.6481     3.1144  25 O    0 0 0
   1 SI   1     1.6541     3.1258  33 O    0 0 0
   1 SI   1     1.6666     3.1495  24 O    0 0 0
   1 SI   1     3.1085     5.8742   6 SI   0 1 0
   1 SI   1     3.1380     5.9300   5 SI   0 0 0

  13 O    2     1.6331     3.0861   3 SI   0 0 0   6 SI   0 0 0
  13 O    2     2.6668     5.0394  23 O    0 0 0  24 O    0-1 0
  13 O    2     2.7055     5.1126  32 O    0 0 0  35 O    0 0 0
  13 O    2     2.7185     5.1371  27 O    0 0 0  30 O    0 0 0
  13 O    2     3.6238     6.8480  17 O    0 0 0  18 O    0 0 0
  13 O    2     3.7610     7.1072   7 SI   0 0 0  10 SI   0 0 0

  19 O    2     1.6666     3.1495   8 SI   0 0 1  11 SI   0 0 0
  19 O    2     2.6362     4.9818  27 O    0 0 0  30 O    0 0 1
  19 O    2     2.6668     5.0394  17 O    0 0 0  18 O    0 0 1
  19 O    2     2.8009     5.2929  31 O    0 0 0  34 O    0 0 1
  19 O    2     4.0769     7.7042   2 SI   0 0 0   5 SI   0 0 1
  19 O    2     4.2182     7.9712   3 SI   0 0 0   6 SI   0 0 1

  25 O    2     1.6481     3.1144   1 SI   0 0 0  10 SI   0 0 0
  25 O    2     2.6354     4.9801  32 O    0 0 0  33 O    0 0 0
  25 O    2     2.6362     4.9818  20 O    0 0 0  24 O    0 0 0
  25 O    2     2.7185     5.1371  14 O    0 0 0  18 O    0 0 0
  25 O    1     3.8862     7.3439  34 O    0 0 0
  25 O    2     3.9090     7.3869   5 SI   0 0 0   8 SI   0 0 0

  31 O    2     1.6541     3.1258   2 SI   0 0 0  11 SI   0 0 0
  31 O    2     2.6354     4.9801  26 O    0 0 0  27 O    0 0 0
  31 O    2     2.7055     5.1126  15 O    0 0 0  17 O    0 0 0
  31 O    2     2.8009     5.2929  19 O    0 0 0  22 O    0 0 0
  31 O    1     3.5039     6.6214  34 O    0 0 1
  31 O    2     3.6400     6.8787   5 SI   0 0 1   8 SI   0 0 1


 SYMMETRY ALLOWED INTERNAL DEGREE(S) OF FREEDOM:   9
 TTTTTTTTTTTTTTTTTTTTTTTTTTTTTT SYMM        TELAPSE        6.91 TCPU        0.21
 TTTTTTTTTTTTTTTTTTTTTTTTTTTTTT INT_SCREEN  TELAPSE        6.92 TCPU        0.22
 WARNING **** GENBUF **** COULOMB BIPO BUFFER TOO SMALL - TO AVOID I/O SET BIPOSIZE =   2519700
 INFORMATION **** EXCBUF **** EXCH. BIPO BUFFER: WORDS USED =    360000
 WARNING **** EXCBUF **** EXCH. BIPO BUFFER TOO SMALL - TO AVOID I/O SET EXCHSIZE =   1284966
 WARNING **** GENPOL **** COULOMB BIPO BUFFER EXCEEDED - TO AVOID I/O SET BIPOSIZE TO   2519700
 TTTTTTTTTTTTTTTTTTTTTTTTTTTTTT MONIRR      TELAPSE        8.24 TCPU        0.55

  GAUSS70 FOR COULOMB   GAUSS70 FOR EXCHANGE
 **SHELL_ORTHODOX** SPACE FOR BIEL. INTEGRALS     9 BUFFERS
 TTTTTTTTTTTTTTTTTTTTTTTTTTTTTT SHLC        TELAPSE       27.82 TCPU        5.44
 TTTTTTTTTTTTTTTTTTTTTTTTTTTTTT MONMAD      TELAPSE       28.91 TCPU        5.74
 TTTTTTTTTTTTTTTTTTTTTTTTTTTTTT INT_CALC    TELAPSE       29.02 TCPU        5.74
 EEEEEEEEEE INT_CALC TERMINATION  DATE 23 02 2010 TIME 04:04:45.4

 *******************************************************************************
 SiO2 , Chabazite                                                                
 CRYSTAL - SCF - TYPE OF CALCULATION :  RESTRICTED CLOSED SHELL
 *******************************************************************************

 CAPPA: IS1=  4 IS2=  4 IS3=  4K POINTS MONKHORST NET   13 SYMMOPS K SPACE 12 SYMMOPS G SPACE 12


 CAPPA1: ISJ1=  4 ISJ2=  4 ISJ3=  4K POINTS GILAT NET   13 SYMMOPS K SPACE 12 SYMMOPS G SPACE 12

 TTTTTTTTTTTTTTTTTTTTTTTTTTTTTT SDIK        TELAPSE       29.43 TCPU        5.75

 AAAAAAAAAAAAAAAAAAAAAAAAAAAAAAAAAAAAAAAAAAAAAAAAAAAAAAAAAAAAAAAAAAAAAAAAAAAAAAA
         ATOMIC WAVEFUNCTION(S)


 NUCLEAR CHARGE 14.0  SYMMETRY SPECIES            S    P
 N. ELECTRONS   12.0  NUMBER OF PRIMITIVE GTOS   19   11
                      NUMBER OF CONTRACTED GTOS   5    4
                      NUMBER OF CLOSED SHELLS     3    1
                      OPEN SHELL OCCUPATION       0    0

  ZNUC SCFIT  TOTAL HF ENERGY   KINETIC ENERGY   VIRIAL THEOREM ACCURACY
  14.0   9   -2.879801195E+02  2.880707012E+02 -1.999685557E+00  2.9E-06

 NUCLEAR CHARGE  8.0  SYMMETRY SPECIES            S    P
 N. ELECTRONS    9.0  NUMBER OF PRIMITIVE GTOS   14    6
                      NUMBER OF CONTRACTED GTOS   4    3
                      NUMBER OF CLOSED SHELLS     2    0
                      OPEN SHELL OCCUPATION       0    5

  ZNUC SCFIT  TOTAL HF ENERGY   KINETIC ENERGY   VIRIAL THEOREM ACCURACY
   8.0  24   -7.476707961E+01  7.470742756E+01 -2.000798475E+00  4.9E-06

 AAAAAAAAAAAAAAAAAAAAAAAAAAAAAAAAAAAAAAAAAAAAAAAAAAAAAAAAAAAAAAAAAAAAAAAAAAAAAAA

 CHARGE NORMALIZATION FACTOR   1.00000000
 TOTAL ATOMIC CHARGES:
  12.0000000  12.0000000  12.0000000  12.0000000  12.0000000  12.0000000
  12.0000000  12.0000000  12.0000000  12.0000000  12.0000000  12.0000000
   9.0000000   9.0000000   9.0000000   9.0000000   9.0000000   9.0000000
   9.0000000   9.0000000   9.0000000   9.0000000   9.0000000   9.0000000
   9.0000000   9.0000000   9.0000000   9.0000000   9.0000000   9.0000000
   9.0000000   9.0000000   9.0000000   9.0000000   9.0000000   9.0000000
 TTTTTTTTTTTTTTTTTTTTTTTTTTTTTT QGAM        TELAPSE       43.67 TCPU        5.76
 TTTTTTTTTTTTTTTTTTTTTTTTTTTTTT BIEL        TELAPSE       55.09 TCPU        5.88
 TTTTTTTTTTTTTTTTTTTTTTTTTTTTTT TOTENY      TELAPSE       60.59 TCPU        5.89
 CYC   0 ETOT(AU) -5.281278770750E+03 DETOT -5.28E+03 tst  0.00E+00 PX  1.00E+00
 TTTTTTTTTTTTTTTTTTTTTTTTTTTTTT FDIK        TELAPSE       82.13 TCPU        5.89
 INSULATING STATE - TOP OF VALENCE BANDS (A.U.) -4.6869750E-01
 TTTTTTTTTTTTTTTTTTTTTTTTTTTTTT PDIG        TELAPSE       83.24 TCPU        5.92
 CHARGE NORMALIZATION FACTOR   1.00000000
 TOTAL ATOMIC CHARGES:
  12.1505436  12.1505436  12.1505436  12.1505436  12.1505436  12.1505436
  12.1505436  12.1505436  12.1505436  12.1505436  12.1505436  12.1505436
   8.9275754   8.9275754   8.9275754   8.9275754   8.9275754   8.9275754
   8.8887920   8.8887920   8.8887920   8.8887920   8.8887920   8.8887920
   8.9164151   8.9164151   8.9164151   8.9164151   8.9164151   8.9164151
   8.9661303   8.9661303   8.9661303   8.9661303   8.9661303   8.9661303
 TTTTTTTTTTTTTTTTTTTTTTTTTTTTTT QGAM        TELAPSE       83.38 TCPU        5.92
 TTTTTTTTTTTTTTTTTTTTTTTTTTTTTT BIEL        TELAPSE      105.77 TCPU        6.07
 TTTTTTTTTTTTTTTTTTTTTTTTTTTTTT TOTENY      TELAPSE      105.90 TCPU        6.08
 CYC   1 ETOT(AU) -5.266390127655E+03 DETOT  1.49E+01 tst  0.00E+00 PX  1.00E+00
 TTTTTTTTTTTTTTTTTTTTTTTTTTTTTT FDIK        TELAPSE      110.87 TCPU        6.08
 INSULATING STATE - TOP OF VALENCE BANDS (A.U.) -4.5302265E-01
 TTTTTTTTTTTTTTTTTTTTTTTTTTTTTT PDIG        TELAPSE      112.80 TCPU        6.12
 CHARGE NORMALIZATION FACTOR   1.00000000
 TOTAL ATOMIC CHARGES:
  12.1908974  12.1908974  12.1908974  12.1908974  12.1908974  12.1908974
  12.1908974  12.1908974  12.1908974  12.1908974  12.1908974  12.1908974
   8.9107725   8.9107725   8.9107725   8.9107725   8.9107725   8.9107725
   8.8680348   8.8680348   8.8680348   8.8680348   8.8680348   8.8680348
   8.8942470   8.8942470   8.8942470   8.8942470   8.8942470   8.8942470
   8.9451510   8.9451510   8.9451510   8.9451510   8.9451510   8.9451510
 TTTTTTTTTTTTTTTTTTTTTTTTTTTTTT QGAM        TELAPSE      112.99 TCPU        6.12
 TTTTTTTTTTTTTTTTTTTTTTTTTTTTTT BIEL        TELAPSE      113.34 TCPU        6.32
 TTTTTTTTTTTTTTTTTTTTTTTTTTTTTT TOTENY      TELAPSE      113.62 TCPU        6.33
 CYC   2 ETOT(AU) -5.266611278333E+03 DETOT -2.21E-01 tst  2.34E-04 PX  2.64E-02
 TTTTTTTTTTTTTTTTTTTTTTTTTTTTTT FDIK        TELAPSE      119.34 TCPU        6.33
 INSULATING STATE - TOP OF VALENCE BANDS (A.U.) -4.4575195E-01
 TTTTTTTTTTTTTTTTTTTTTTTTTTTTTT PDIG        TELAPSE      121.64 TCPU        6.36
 CHARGE NORMALIZATION FACTOR   1.00000000
 TOTAL ATOMIC CHARGES:
  12.2328496  12.2328496  12.2328496  12.2328496  12.2328496  12.2328496
  12.2328496  12.2328496  12.2328496  12.2328496  12.2328496  12.2328496
   8.8926727   8.8926727   8.8926727   8.8926727   8.8926727   8.8926727
   8.8475937   8.8475937   8.8475937   8.8475937   8.8475937   8.8475937
   8.8726864   8.8726864   8.8726864   8.8726864   8.8726864   8.8726864
   8.9213479   8.9213479   8.9213479   8.9213479   8.9213479   8.9213479
 TTTTTTTTTTTTTTTTTTTTTTTTTTTTTT QGAM        TELAPSE      121.76 TCPU        6.36
 TTTTTTTTTTTTTTTTTTTTTTTTTTTTTT BIEL        TELAPSE      122.49 TCPU        6.72
 TTTTTTTTTTTTTTTTTTTTTTTTTTTTTT TOTENY      TELAPSE      122.62 TCPU        6.72
 CYC   3 ETOT(AU) -5.266805745067E+03 DETOT -1.94E-01 tst  3.32E-04 PX  4.07E-02
 TTTTTTTTTTTTTTTTTTTTTTTTTTTTTT FDIK        TELAPSE      127.99 TCPU        6.72
 INSULATING STATE - TOP OF VALENCE BANDS (A.U.) -4.4445565E-01
 TTTTTTTTTTTTTTTTTTTTTTTTTTTTTT PDIG        TELAPSE      129.34 TCPU        6.78
 CHARGE NORMALIZATION FACTOR   1.00000000
 TOTAL ATOMIC CHARGES:
  12.2692876  12.2692876  12.2692876  12.2692876  12.2692876  12.2692876
  12.2692876  12.2692876  12.2692876  12.2692876  12.2692876  12.2692876
   8.8772200   8.8772200   8.8772200   8.8772200   8.8772200   8.8772200
   8.8291406   8.8291406   8.8291406   8.8291406   8.8291406   8.8291406
   8.8543576   8.8543576   8.8543576   8.8543576   8.8543576   8.8543576
   8.9007065   8.9007065   8.9007065   8.9007065   8.9007065   8.9007065
 TTTTTTTTTTTTTTTTTTTTTTTTTTTTTT QGAM        TELAPSE      129.39 TCPU        6.79
 TTTTTTTTTTTTTTTTTTTTTTTTTTTTTT BIEL        TELAPSE      129.96 TCPU        7.36
 TTTTTTTTTTTTTTTTTTTTTTTTTTTTTT TOTENY      TELAPSE      130.01 TCPU        7.37
 CYC   4 ETOT(AU) -5.266918923215E+03 DETOT -1.13E-01 tst  3.51E-04 PX  4.54E-02
 TTTTTTTTTTTTTTTTTTTTTTTTTTTTTT FDIK        TELAPSE      134.71 TCPU        7.37
 INSULATING STATE - TOP OF VALENCE BANDS (A.U.) -4.4626345E-01
 TTTTTTTTTTTTTTTTTTTTTTTTTTTTTT PDIG        TELAPSE      135.96 TCPU        7.41
 CHARGE NORMALIZATION FACTOR   1.00000000
 TOTAL ATOMIC CHARGES:
  12.2955782  12.2955782  12.2955782  12.2955782  12.2955782  12.2955782
  12.2955782  12.2955782  12.2955782  12.2955782  12.2955782  12.2955782
   8.8661134   8.8661134   8.8661134   8.8661134   8.8661134   8.8661134
   8.8157466   8.8157466   8.8157466   8.8157466   8.8157466   8.8157466
   8.8416334   8.8416334   8.8416334   8.8416334   8.8416334   8.8416334
   8.8853500   8.8853500   8.8853500   8.8853500   8.8853500   8.8853500
 TTTTTTTTTTTTTTTTTTTTTTTTTTTTTT QGAM        TELAPSE      136.01 TCPU        7.43
 TTTTTTTTTTTTTTTTTTTTTTTTTTTTTT BIEL        TELAPSE      136.45 TCPU        7.76
 TTTTTTTTTTTTTTTTTTTTTTTTTTTTTT TOTENY      TELAPSE      136.64 TCPU        7.77
 CYC   5 ETOT(AU) -5.266979920570E+03 DETOT -6.10E-02 tst  3.11E-04 PX  3.52E-02
 TTTTTTTTTTTTTTTTTTTTTTTTTTTTTT FDIK        TELAPSE      141.55 TCPU        7.77
 INSULATING STATE - TOP OF VALENCE BANDS (A.U.) -4.4918041E-01
 TTTTTTTTTTTTTTTTTTTTTTTTTTTTTT PDIG        TELAPSE      143.65 TCPU        7.82
 CHARGE NORMALIZATION FACTOR   1.00000000
 TOTAL ATOMIC CHARGES:
  12.3122658  12.3122658  12.3122658  12.3122658  12.3122658  12.3122658
  12.3122658  12.3122658  12.3122658  12.3122658  12.3122658  12.3122658
   8.8593036   8.8593036   8.8593036   8.8593036   8.8593036   8.8593036
   8.8070241   8.8070241   8.8070241   8.8070241   8.8070241   8.8070241
   8.8339976   8.8339976   8.8339976   8.8339976   8.8339976   8.8339976
   8.8751431   8.8751431   8.8751431   8.8751431   8.8751431   8.8751431
 TTTTTTTTTTTTTTTTTTTTTTTTTTTTTT QGAM        TELAPSE      143.79 TCPU        7.82
 TTTTTTTTTTTTTTTTTTTTTTTTTTTTTT BIEL        TELAPSE      144.34 TCPU        8.04
 TTTTTTTTTTTTTTTTTTTTTTTTTTTTTT TOTENY      TELAPSE      144.54 TCPU        8.05
 CYC   6 ETOT(AU) -5.267013167499E+03 DETOT -3.32E-02 tst  2.44E-04 PX  2.36E-02
 TTTTTTTTTTTTTTTTTTTTTTTTTTTTTT FDIK        TELAPSE      149.15 TCPU        8.05
 INSULATING STATE - TOP OF VALENCE BANDS (A.U.) -4.5207448E-01
 TTTTTTTTTTTTTTTTTTTTTTTTTTTTTT PDIG        TELAPSE      151.68 TCPU        8.08
 CHARGE NORMALIZATION FACTOR   1.00000000
 TOTAL ATOMIC CHARGES:
  12.3218187  12.3218187  12.3218187  12.3218187  12.3218187  12.3218187
  12.3218187  12.3218187  12.3218187  12.3218187  12.3218187  12.3218187
   8.8557433   8.8557433   8.8557433   8.8557433   8.8557433   8.8557433
   8.8019485   8.8019485   8.8019485   8.8019485   8.8019485   8.8019485
   8.8299734   8.8299734   8.8299734   8.8299734   8.8299734   8.8299734
   8.8686975   8.8686975   8.8686975   8.8686975   8.8686975   8.8686975
 TTTTTTTTTTTTTTTTTTTTTTTTTTTTTT QGAM        TELAPSE      151.94 TCPU        8.08
 TTTTTTTTTTTTTTTTTTTTTTTTTTTTTT BIEL        TELAPSE      152.57 TCPU        8.46
 TTTTTTTTTTTTTTTTTTTTTTTTTTTTTT TOTENY      TELAPSE      152.78 TCPU        8.48
 CYC   7 ETOT(AU) -5.267032413731E+03 DETOT -1.92E-02 tst  1.92E-04 PX  2.63E-02
 TTTTTTTTTTTTTTTTTTTTTTTTTTTTTT FDIK        TELAPSE      158.49 TCPU        8.48
 INSULATING STATE - TOP OF VALENCE BANDS (A.U.) -4.5443594E-01
 TTTTTTTTTTTTTTTTTTTTTTTTTTTTTT PDIG        TELAPSE      160.89 TCPU        8.53
 CHARGE NORMALIZATION FACTOR   1.00000000
 TOTAL ATOMIC CHARGES:
  12.3261326  12.3261326  12.3261326  12.3261326  12.3261326  12.3261326
  12.3261326  12.3261326  12.3261326  12.3261326  12.3261326  12.3261326
   8.8544136   8.8544136   8.8544136   8.8544136   8.8544136   8.8544136
   8.7996217   8.7996217   8.7996217   8.7996217   8.7996217   8.7996217
   8.8286192   8.8286192   8.8286192   8.8286192   8.8286192   8.8286192
   8.8650803   8.8650803   8.8650803   8.8650803   8.8650803   8.8650803
 TTTTTTTTTTTTTTTTTTTTTTTTTTTTTT QGAM        TELAPSE      161.07 TCPU        8.54
 TTTTTTTTTTTTTTTTTTTTTTTTTTTTTT BIEL        TELAPSE      161.66 TCPU        8.82
 TTTTTTTTTTTTTTTTTTTTTTTTTTTTTT TOTENY      TELAPSE      161.91 TCPU        8.84
 CYC   8 ETOT(AU) -5.267044330654E+03 DETOT -1.19E-02 tst  1.43E-04 PX  2.84E-02
 TTTTTTTTTTTTTTTTTTTTTTTTTTTTTT FDIK        TELAPSE      167.83 TCPU        8.84
 INSULATING STATE - TOP OF VALENCE BANDS (A.U.) -4.5613980E-01
 TTTTTTTTTTTTTTTTTTTTTTTTTTTTTT PDIG        TELAPSE      170.03 TCPU        8.86
 CHARGE NORMALIZATION FACTOR   1.00000000
 TOTAL ATOMIC CHARGES:
  12.3276497  12.3276497  12.3276497  12.3276497  12.3276497  12.3276497
  12.3276497  12.3276497  12.3276497  12.3276497  12.3276497  12.3276497
   8.8542555   8.8542555   8.8542555   8.8542555   8.8542555   8.8542555
   8.7987353   8.7987353   8.7987353   8.7987353   8.7987353   8.7987353
   8.8284465   8.8284465   8.8284465   8.8284465   8.8284465   8.8284465
   8.8632633   8.8632633   8.8632633   8.8632633   8.8632633   8.8632633
 TTTTTTTTTTTTTTTTTTTTTTTTTTTTTT QGAM        TELAPSE      170.22 TCPU        8.87
 TTTTTTTTTTTTTTTTTTTTTTTTTTTTTT BIEL        TELAPSE      170.45 TCPU        9.04
 TTTTTTTTTTTTTTTTTTTTTTTTTTTTTT TOTENY      TELAPSE      170.95 TCPU        9.05
 CYC   9 ETOT(AU) -5.267052057317E+03 DETOT -7.73E-03 tst  1.03E-04 PX  3.14E-02
 TTTTTTTTTTTTTTTTTTTTTTTTTTTTTT FDIK        TELAPSE      175.93 TCPU        9.05
 INSULATING STATE - TOP OF VALENCE BANDS (A.U.) -4.5725801E-01
 TTTTTTTTTTTTTTTTTTTTTTTTTTTTTT PDIG        TELAPSE      177.30 TCPU        9.08
 CHARGE NORMALIZATION FACTOR   1.00000000
 TOTAL ATOMIC CHARGES:
  12.3284100  12.3284100  12.3284100  12.3284100  12.3284100  12.3284100
  12.3284100  12.3284100  12.3284100  12.3284100  12.3284100  12.3284100
   8.8544767   8.8544767   8.8544767   8.8544767   8.8544767   8.8544767
   8.7981804   8.7981804   8.7981804   8.7981804   8.7981804   8.7981804
   8.8284100   8.8284100   8.8284100   8.8284100   8.8284100   8.8284100
   8.8621129   8.8621129   8.8621129   8.8621129   8.8621129   8.8621129
 TTTTTTTTTTTTTTTTTTTTTTTTTTTTTT QGAM        TELAPSE      177.38 TCPU        9.08
 TTTTTTTTTTTTTTTTTTTTTTTTTTTTTT BIEL        TELAPSE      177.84 TCPU        9.36
 TTTTTTTTTTTTTTTTTTTTTTTTTTTTTT TOTENY      TELAPSE      177.91 TCPU        9.37
 CYC  10 ETOT(AU) -5.267057341253E+03 DETOT -5.28E-03 tst  7.16E-05 PX  3.59E-02
 TTTTTTTTTTTTTTTTTTTTTTTTTTTTTT FDIK        TELAPSE      182.69 TCPU        9.39
 INSULATING STATE - TOP OF VALENCE BANDS (A.U.) -4.5791382E-01
 TTTTTTTTTTTTTTTTTTTTTTTTTTTTTT PDIG        TELAPSE      184.05 TCPU        9.41
 CHARGE NORMALIZATION FACTOR   1.00000000
 TOTAL ATOMIC CHARGES:
  12.3293982  12.3293982  12.3293982  12.3293982  12.3293982  12.3293982
  12.3293982  12.3293982  12.3293982  12.3293982  12.3293982  12.3293982
   8.8546967   8.8546967   8.8546967   8.8546967   8.8546967   8.8546967
   8.7974722   8.7974722   8.7974722   8.7974722   8.7974722   8.7974722
   8.8278741   8.8278741   8.8278741   8.8278741   8.8278741   8.8278741
   8.8611605   8.8611605   8.8611605   8.8611605   8.8611605   8.8611605
 TTTTTTTTTTTTTTTTTTTTTTTTTTTTTT QGAM        TELAPSE      184.09 TCPU        9.42
 TTTTTTTTTTTTTTTTTTTTTTTTTTTTTT BIEL        TELAPSE      184.90 TCPU        9.93
 TTTTTTTTTTTTTTTTTTTTTTTTTTTTTT TOTENY      TELAPSE      184.91 TCPU        9.94
 CYC  11 ETOT(AU) -5.267061407586E+03 DETOT -4.07E-03 tst  5.29E-05 PX  4.43E-02
 TTTTTTTTTTTTTTTTTTTTTTTTTTTTTT FDIK        TELAPSE      190.18 TCPU        9.94
 INSULATING STATE - TOP OF VALENCE BANDS (A.U.) -4.5824055E-01
 TTTTTTTTTTTTTTTTTTTTTTTTTTTTTT PDIG        TELAPSE      192.48 TCPU        9.98
 CHARGE NORMALIZATION FACTOR   1.00000000
 TOTAL ATOMIC CHARGES:
  12.3316343  12.3316343  12.3316343  12.3316343  12.3316343  12.3316343
  12.3316343  12.3316343  12.3316343  12.3316343  12.3316343  12.3316343
   8.8544468   8.8544468   8.8544468   8.8544468   8.8544468   8.8544468
   8.7959822   8.7959822   8.7959822   8.7959822   8.7959822   8.7959822
   8.8264065   8.8264065   8.8264065   8.8264065   8.8264065   8.8264065
   8.8598960   8.8598960   8.8598960   8.8598960   8.8598960   8.8598960
 TTTTTTTTTTTTTTTTTTTTTTTTTTTTTT QGAM        TELAPSE      192.57 TCPU        9.98
 TTTTTTTTTTTTTTTTTTTTTTTTTTTTTT BIEL        TELAPSE      192.94 TCPU       10.31
 TTTTTTTTTTTTTTTTTTTTTTTTTTTTTT TOTENY      TELAPSE      193.41 TCPU       10.33
 CYC  12 ETOT(AU) -5.267065435667E+03 DETOT -4.03E-03 tst  2.09E-04 PX  6.13E-02
 TTTTTTTTTTTTTTTTTTTTTTTTTTTTTT FDIK        TELAPSE      197.20 TCPU       10.33
 INSULATING STATE - TOP OF VALENCE BANDS (A.U.) -4.5834837E-01
 TTTTTTTTTTTTTTTTTTTTTTTTTTTTTT PDIG        TELAPSE      199.40 TCPU       10.37
 CHARGE NORMALIZATION FACTOR   1.00000000
 TOTAL ATOMIC CHARGES:
  12.3364742  12.3364742  12.3364742  12.3364742  12.3364742  12.3364742
  12.3364742  12.3364742  12.3364742  12.3364742  12.3364742  12.3364742
   8.8534562   8.8534562   8.8534562   8.8534562   8.8534562   8.8534562
   8.7929998   8.7929998   8.7929998   8.7929998   8.7929998   8.7929998
   8.8229024   8.8229024   8.8229024   8.8229024   8.8229024   8.8229024
   8.8576931   8.8576931   8.8576931   8.8576931   8.8576931   8.8576931
 TTTTTTTTTTTTTTTTTTTTTTTTTTTTTT QGAM        TELAPSE      199.55 TCPU       10.37
 TTTTTTTTTTTTTTTTTTTTTTTTTTTTTT BIEL        TELAPSE      200.17 TCPU       10.69
 TTTTTTTTTTTTTTTTTTTTTTTTTTTTTT TOTENY      TELAPSE      200.36 TCPU       10.70
 CYC  13 ETOT(AU) -5.267071264003E+03 DETOT -5.83E-03 tst  6.18E-04 PX  1.15E-01
 TTTTTTTTTTTTTTTTTTTTTTTTTTTTTT FDIK        TELAPSE      204.81 TCPU       10.70
 POSSIBLY CONDUCTING STATE - EFERMI(AU) -4.5774752E-01 (RES. CHARGE  1.98E-09;IT. 22)
 TTTTTTTTTTTTTTTTTTTTTTTTTTTTTT PDIG        TELAPSE      207.22 TCPU       10.75
 CHARGE NORMALIZATION FACTOR   1.00000000
 TOTAL ATOMIC CHARGES:
  12.3517814  12.3517814  12.3517814  12.3517814  12.3517814  12.3517814
  12.3517814  12.3517814  12.3517814  12.3517814  12.3517814  12.3517814
   8.8480768   8.8480768   8.8480768   8.8480768   8.8480768   8.8480768
   8.7832556   8.7832556   8.7832556   8.7832556   8.7832556   8.7832556
   8.8130479   8.8130479   8.8130479   8.8130479   8.8130479   8.8130479
   8.8520569   8.8520569   8.8520569   8.8520569   8.8520569   8.8520569
 TTTTTTTTTTTTTTTTTTTTTTTTTTTTTT QGAM        TELAPSE      207.32 TCPU       10.76
 TTTTTTTTTTTTTTTTTTTTTTTTTTTTTT BIEL        TELAPSE      207.89 TCPU       11.07
 TTTTTTTTTTTTTTTTTTTTTTTTTTTTTT TOTENY      TELAPSE      208.02 TCPU       11.08
 CYC  14 ETOT(AU) -5.266803427635E+03 DETOT  2.68E-01 tst  4.26E-02 PX  2.31E+00
 TTTTTTTTTTTTTTTTTTTTTTTTTTTTTT FDIK        TELAPSE      212.54 TCPU       11.08
 POSSIBLY CONDUCTING STATE - EFERMI(AU) -4.8254229E-01 (RES. CHARGE  1.05E-08;IT. 10)
 TTTTTTTTTTTTTTTTTTTTTTTTTTTTTT PDIG        TELAPSE      214.84 TCPU       11.09
 CHARGE NORMALIZATION FACTOR   1.00000000
 TOTAL ATOMIC CHARGES:
  13.4073823  13.4073823  13.4073823  13.4073823  13.4073823  13.4073823
  13.4073823  13.4073823  13.4073823  13.4073823  13.4073823  13.4073823
   8.6048321   8.6048321   8.6048321   8.6048321   8.6048321   8.6048321
   8.1868009   8.1868009   8.1868009   8.1868009   8.1868009   8.1868009
   7.9697112   7.9697112   7.9697112   7.9697112   7.9697112   7.9697112
   8.4238913   8.4238913   8.4238913   8.4238913   8.4238913   8.4238913
 TTTTTTTTTTTTTTTTTTTTTTTTTTTTTT QGAM        TELAPSE      215.20 TCPU       11.09
 TTTTTTTTTTTTTTTTTTTTTTTTTTTTTT BIEL        TELAPSE      215.55 TCPU       11.31
 TTTTTTTTTTTTTTTTTTTTTTTTTTTTTT TOTENY      TELAPSE      215.81 TCPU       11.32
 CYC  15 ETOT(AU) -3.835260639177E+03 DETOT  1.43E+03 tst  2.04E+00 PX  5.01E+02
 TTTTTTTTTTTTTTTTTTTTTTTTTTTTTT FDIK        TELAPSE      221.73 TCPU       11.34
 POSSIBLY CONDUCTING STATE - EFERMI(AU) -6.2892218E-01 (RES. CHARGE  1.96E-03;IT. 29)
 TTTTTTTTTTTTTTTTTTTTTTTTTTTTTT PDIG        TELAPSE      223.74 TCPU       11.39
 CHARGE NORMALIZATION FACTOR   0.99998911
 TOTAL ATOMIC CHARGES:
  15.3576996  15.3576996  15.3576996  15.3576996  15.3576996  15.3576996
  15.3576996  15.3576996  15.3576996  15.3576996  15.3576996  15.3576996
   7.5031664   7.5031664   7.5031664   7.5031664   7.5031664   7.5031664
   7.1138045   7.1138045   7.1138045   7.1138045   7.1138045   7.1138045
   7.4996867   7.4996867   7.4996867   7.4996867   7.4996867   7.4996867
   7.1679432   7.1679432   7.1679432   7.1679432   7.1679432   7.1679432
 TTTTTTTTTTTTTTTTTTTTTTTTTTTTTT QGAM        TELAPSE      223.90 TCPU       11.39
 TTTTTTTTTTTTTTTTTTTTTTTTTTTTTT BIEL        TELAPSE      224.37 TCPU       11.74
 TTTTTTTTTTTTTTTTTTTTTTTTTTTTTT TOTENY      TELAPSE      224.40 TCPU       11.75
 CYC  16 ETOT(AU)  6.553343816220E+03 DETOT  1.04E+04 tst  1.36E+04 PX  2.52E+02
 TTTTTTTTTTTTTTTTTTTTTTTTTTTTTT FDIK        TELAPSE      229.89 TCPU       11.77
 POSSIBLY CONDUCTING STATE - EFERMI(AU) -8.7814918E-01 (RES. CHARGE  7.36E-03;IT. 27)
 TTTTTTTTTTTTTTTTTTTTTTTTTTTTTT PDIG        TELAPSE      231.31 TCPU       11.80
 CHARGE NORMALIZATION FACTOR   1.00004090
 TOTAL ATOMIC CHARGES:
  16.1042178  16.1042178  16.1042178  16.1042178  16.1042178  16.1042178
  16.1042178  16.1042178  16.1042178  16.1042178  16.1042178  16.1042178
   7.0099404   7.0099404   7.0099404   7.0099404   7.0099404   7.0099404
   6.6706332   6.6706332   6.6706332   6.6706332   6.6706332   6.6706332
   7.3131882   7.3131882   7.3131882   7.3131882   7.3131882   7.3131882
   6.7978026   6.7978026   6.7978026   6.7978026   6.7978026   6.7978026
 TTTTTTTTTTTTTTTTTTTTTTTTTTTTTT QGAM        TELAPSE      231.44 TCPU       11.81
 TTTTTTTTTTTTTTTTTTTTTTTTTTTTTT BIEL        TELAPSE      231.92 TCPU       12.16
 TTTTTTTTTTTTTTTTTTTTTTTTTTTTTT TOTENY      TELAPSE      232.03 TCPU       12.17
 CYC  17 ETOT(AU)  8.504667455783E+03 DETOT  1.95E+03 tst  3.59E+04 PX  3.74E+02
 TTTTTTTTTTTTTTTTTTTTTTTTTTTTTT FDIK        TELAPSE      236.85 TCPU       12.17
 POSSIBLY CONDUCTING STATE - EFERMI(AU) -9.8343378E-01 (RES. CHARGE  4.87E-08;IT. 10)
 TTTTTTTTTTTTTTTTTTTTTTTTTTTTTT PDIG        TELAPSE      239.19 TCPU       12.23
 CHARGE NORMALIZATION FACTOR   1.00000000
 TOTAL ATOMIC CHARGES:
  16.1748286  16.1748286  16.1748286  16.1748286  16.1748286  16.1748286
  16.1748286  16.1748286  16.1748286  16.1748286  16.1748286  16.1748286
   7.2077874   7.2077874   7.2077874   7.2077874   7.2077874   7.2077874
   6.8792010   6.8792010   6.8792010   6.8792010   6.8792010   6.8792010
   7.0978602   7.0978602   7.0978602   7.0978602   7.0978602   7.0978602
   6.4654941   6.4654941   6.4654941   6.4654941   6.4654941   6.4654941
 TTTTTTTTTTTTTTTTTTTTTTTTTTTTTT QGAM        TELAPSE      239.25 TCPU       12.24
 TTTTTTTTTTTTTTTTTTTTTTTTTTTTTT BIEL        TELAPSE      239.63 TCPU       12.47
 TTTTTTTTTTTTTTTTTTTTTTTTTTTTTT TOTENY      TELAPSE      239.98 TCPU       12.49
 CYC  18 ETOT(AU)  9.205785863703E+03 DETOT  7.01E+02 tst  5.89E+03 PX  5.31E+02
 TTTTTTTTTTTTTTTTTTTTTTTTTTTTTT FDIK        TELAPSE      246.09 TCPU       12.50
 POSSIBLY CONDUCTING STATE - EFERMI(AU) -1.1511273E+00 (RES. CHARGE  8.94E-11;IT.  8)
 TTTTTTTTTTTTTTTTTTTTTTTTTTTTTT PDIG        TELAPSE      248.73 TCPU       12.52
 CHARGE NORMALIZATION FACTOR   1.00000000
 TOTAL ATOMIC CHARGES:
  16.0986491  16.0986491  16.0986491  16.0986491  16.0986491  16.0986491
  16.0986491  16.0986491  16.0986491  16.0986491  16.0986491  16.0986491
   7.2235301   7.2235301   7.2235301   7.2235301   7.2235301   7.2235301
   6.9039539   6.9039539   6.9039539   6.9039539   6.9039539   6.9039539
   7.1320105   7.1320105   7.1320105   7.1320105   7.1320105   7.1320105
   6.5432074   6.5432074   6.5432074   6.5432074   6.5432074   6.5432074
 TTTTTTTTTTTTTTTTTTTTTTTTTTTTTT QGAM        TELAPSE      248.84 TCPU       12.52
 TTTTTTTTTTTTTTTTTTTTTTTTTTTTTT BIEL        TELAPSE      249.09 TCPU       12.72
 TTTTTTTTTTTTTTTTTTTTTTTTTTTTTT TOTENY      TELAPSE      249.63 TCPU       12.73
 CYC  19 ETOT(AU)  8.255615325684E+03 DETOT -9.50E+02 tst  1.20E+04 PX  6.52E+02
 TTTTTTTTTTTTTTTTTTTTTTTTTTTTTT FDIK        TELAPSE      260.68 TCPU       12.73
 POSSIBLY CONDUCTING STATE - EFERMI(AU) -1.2261067E+00 (RES. CHARGE  2.88E-08;IT.  8)
 TTTTTTTTTTTTTTTTTTTTTTTTTTTTTT PDIG        TELAPSE      263.41 TCPU       12.76
 CHARGE NORMALIZATION FACTOR   1.00000000
 TOTAL ATOMIC CHARGES:
  15.9467189  15.9467189  15.9467189  15.9467189  15.9467189  15.9467189
  15.9467189  15.9467189  15.9467189  15.9467189  15.9467189  15.9467189
   7.4993951   7.4993951   7.4993951   7.4993951   7.4993951   7.4993951
   7.2168956   7.2168956   7.2168956   7.2168956   7.2168956   7.2168956
   7.0689071   7.0689071   7.0689071   7.0689071   7.0689071   7.0689071
   6.3213643   6.3213643   6.3213643   6.3213643   6.3213643   6.3213643
 TTTTTTTTTTTTTTTTTTTTTTTTTTTTTT QGAM        TELAPSE      263.55 TCPU       12.76
 TTTTTTTTTTTTTTTTTTTTTTTTTTTTTT BIEL        TELAPSE      264.19 TCPU       13.08
 TTTTTTTTTTTTTTTTTTTTTTTTTTTTTT TOTENY      TELAPSE      264.26 TCPU       13.08
 CYC  20 ETOT(AU)  7.710278839148E+03 DETOT -5.45E+02 tst  1.47E+04 PX  6.99E+02
 TTTTTTTTTTTTTTTTTTTTTTTTTTTTTT FDIK        TELAPSE      268.17 TCPU       13.08
 POSSIBLY CONDUCTING STATE - EFERMI(AU) -1.1786174E+00 (RES. CHARGE  4.58E-11;IT. 12)
 TTTTTTTTTTTTTTTTTTTTTTTTTTTTTT PDIG        TELAPSE      270.32 TCPU       13.13
 CHARGE NORMALIZATION FACTOR   1.00000000
 TOTAL ATOMIC CHARGES:
  15.8480783  15.8480783  15.8480783  15.8480783  15.8480783  15.8480783
  15.8480783  15.8480783  15.8480783  15.8480783  15.8480783  15.8480783
   7.4606303   7.4606303   7.4606303   7.4606303   7.4606303   7.4606303
   7.1838703   7.1838703   7.1838703   7.1838703   7.1838703   7.1838703
   7.0372871   7.0372871   7.0372871   7.0372871   7.0372871   7.0372871
   6.6220557   6.6220557   6.6220557   6.6220557   6.6220557   6.6220557
 TTTTTTTTTTTTTTTTTTTTTTTTTTTTTT QGAM        TELAPSE      270.38 TCPU       13.15
 TTTTTTTTTTTTTTTTTTTTTTTTTTTTTT BIEL        TELAPSE      271.07 TCPU       13.55
 TTTTTTTTTTTTTTTTTTTTTTTTTTTTTT TOTENY      TELAPSE      271.08 TCPU       13.56
 CYC  21 ETOT(AU)  6.336434552031E+03 DETOT -1.37E+03 tst  4.15E+04 PX  7.25E+02
 TTTTTTTTTTTTTTTTTTTTTTTTTTTTTT FDIK        TELAPSE      277.58 TCPU       13.56
 POSSIBLY CONDUCTING STATE - EFERMI(AU) -1.2660087E+00 (RES. CHARGE  5.38E-08;IT. 10)
 TTTTTTTTTTTTTTTTTTTTTTTTTTTTTT PDIG        TELAPSE      279.21 TCPU       13.61
 CHARGE NORMALIZATION FACTOR   1.00000000
 TOTAL ATOMIC CHARGES:
  15.7489679  15.7489679  15.7489679  15.7489679  15.7489679  15.7489679
  15.7489679  15.7489679  15.7489679  15.7489679  15.7489679  15.7489679
   7.7354534   7.7354534   7.7354534   7.7354534   7.7354534   7.7354534
   7.3658044   7.3658044   7.3658044   7.3658044   7.3658044   7.3658044
   6.9896063   6.9896063   6.9896063   6.9896063   6.9896063   6.9896063
   6.4112001   6.4112001   6.4112001   6.4112001   6.4112001   6.4112001
 TTTTTTTTTTTTTTTTTTTTTTTTTTTTTT QGAM        TELAPSE      279.24 TCPU       13.62
 TTTTTTTTTTTTTTTTTTTTTTTTTTTTTT BIEL        TELAPSE      279.86 TCPU       13.91
 TTTTTTTTTTTTTTTTTTTTTTTTTTTTTT TOTENY      TELAPSE      280.01 TCPU       13.92
 CYC  22 ETOT(AU)  4.324153444133E+03 DETOT -2.01E+03 tst  4.73E+04 PX  6.88E+02
 TTTTTTTTTTTTTTTTTTTTTTTTTTTTTT FDIK        TELAPSE      283.59 TCPU       13.93
 POSSIBLY CONDUCTING STATE - EFERMI(AU) -1.2348158E+00 (RES. CHARGE  3.69E-13;IT. 10)
 TTTTTTTTTTTTTTTTTTTTTTTTTTTTTT PDIG        TELAPSE      285.94 TCPU       13.99
 CHARGE NORMALIZATION FACTOR   1.00000000
 TOTAL ATOMIC CHARGES:
  15.7725166  15.7725166  15.7725166  15.7725166  15.7725166  15.7725166
  15.7725166  15.7725166  15.7725166  15.7725166  15.7725166  15.7725166
   7.6555349   7.6555349   7.6555349   7.6555349   7.6555349   7.6555349
   7.1421087   7.1421087   7.1421087   7.1421087   7.1421087   7.1421087
   7.0884585   7.0884585   7.0884585   7.0884585   7.0884585   7.0884585
   6.5688647   6.5688647   6.5688647   6.5688647   6.5688647   6.5688647
 TTTTTTTTTTTTTTTTTTTTTTTTTTTTTT QGAM        TELAPSE      286.09 TCPU       13.99
 TTTTTTTTTTTTTTTTTTTTTTTTTTTTTT BIEL        TELAPSE      286.61 TCPU       14.23
 TTTTTTTTTTTTTTTTTTTTTTTTTTTTTT TOTENY      TELAPSE      286.76 TCPU       14.24
 CYC  23 ETOT(AU)  2.333617353113E+03 DETOT -1.99E+03 tst  1.94E+05 PX  6.16E+02
 TTTTTTTTTTTTTTTTTTTTTTTTTTTTTT FDIK        TELAPSE      291.95 TCPU       14.25
 POSSIBLY CONDUCTING STATE - EFERMI(AU) -1.2972322E+00 (RES. CHARGE  1.34E-03;IT. 27)
 TTTTTTTTTTTTTTTTTTTTTTTTTTTTTT PDIG        TELAPSE      294.34 TCPU       14.27
 CHARGE NORMALIZATION FACTOR   0.99999257
 TOTAL ATOMIC CHARGES:
  15.8970802  15.8970802  15.8970802  15.8970802  15.8970802  15.8970802
  15.8970802  15.8970802  15.8970802  15.8970802  15.8970802  15.8970802
   7.6538147   7.6538147   7.6538147   7.6538147   7.6538147   7.6538147
   7.1573781   7.1573781   7.1573781   7.1573781   7.1573781   7.1573781
   7.0448321   7.0448321   7.0448321   7.0448321   7.0448321   7.0448321
   6.3498148   6.3498148   6.3498148   6.3498148   6.3498148   6.3498148
 TTTTTTTTTTTTTTTTTTTTTTTTTTTTTT QGAM        TELAPSE      294.62 TCPU       14.28
 TTTTTTTTTTTTTTTTTTTTTTTTTTTTTT BIEL        TELAPSE      295.01 TCPU       14.48
 TTTTTTTTTTTTTTTTTTTTTTTTTTTTTT TOTENY      TELAPSE      295.42 TCPU       14.49
 CYC  24 ETOT(AU) -1.050249080132E+03 DETOT -3.38E+03 tst  1.40E+05 PX  5.21E+02
 TTTTTTTTTTTTTTTTTTTTTTTTTTTTTT FDIK        TELAPSE      305.37 TCPU       14.50
 POSSIBLY CONDUCTING STATE - EFERMI(AU) -1.3829580E+00 (RES. CHARGE  9.96E-10;IT.  8)
 TTTTTTTTTTTTTTTTTTTTTTTTTTTTTT PDIG        TELAPSE      307.51 TCPU       14.55
 CHARGE NORMALIZATION FACTOR   1.00000000
 TOTAL ATOMIC CHARGES:
  16.2789102  16.2789102  16.2789102  16.2789102  16.2789102  16.2789102
  16.2789102  16.2789102  16.2789102  16.2789102  16.2789102  16.2789102
   7.4646126   7.4646126   7.4646126   7.4646126   7.4646126   7.4646126
   6.8803608   6.8803608   6.8803608   6.8803608   6.8803608   6.8803608
   6.8818583   6.8818583   6.8818583   6.8818583   6.8818583   6.8818583
   6.2153479   6.2153479   6.2153479   6.2153479   6.2153479   6.2153479
 TTTTTTTTTTTTTTTTTTTTTTTTTTTTTT QGAM        TELAPSE      307.59 TCPU       14.55
 TTTTTTTTTTTTTTTTTTTTTTTTTTTTTT BIEL        TELAPSE      308.31 TCPU       14.86
 TTTTTTTTTTTTTTTTTTTTTTTTTTTTTT TOTENY      TELAPSE      308.53 TCPU       14.89
 CYC  25 ETOT(AU) -1.975073336371E+03 DETOT -9.25E+02 tst  2.10E+04 PX  4.26E+02
 TTTTTTTTTTTTTTTTTTTTTTTTTTTTTT FDIK        TELAPSE      317.24 TCPU       14.89
 POSSIBLY CONDUCTING STATE - EFERMI(AU) -1.3611091E+00 (RES. CHARGE  2.20E-11;IT. 10)
 TTTTTTTTTTTTTTTTTTTTTTTTTTTTTT PDIG        TELAPSE      318.88 TCPU       14.92
 CHARGE NORMALIZATION FACTOR   1.00000000
 TOTAL ATOMIC CHARGES:
  16.1954449  16.1954449  16.1954449  16.1954449  16.1954449  16.1954449
  16.1954449  16.1954449  16.1954449  16.1954449  16.1954449  16.1954449
   7.6065103   7.6065103   7.6065103   7.6065103   7.6065103   7.6065103
   7.0048290   7.0048290   7.0048290   7.0048290   7.0048290   7.0048290
   6.8231615   6.8231615   6.8231615   6.8231615   6.8231615   6.8231615
   6.1746094   6.1746094   6.1746094   6.1746094   6.1746094   6.1746094
 TTTTTTTTTTTTTTTTTTTTTTTTTTTTTT QGAM        TELAPSE      319.04 TCPU       14.92
 TTTTTTTTTTTTTTTTTTTTTTTTTTTTTT BIEL        TELAPSE      319.43 TCPU       15.17
 TTTTTTTTTTTTTTTTTTTTTTTTTTTTTT TOTENY      TELAPSE      319.57 TCPU       15.18
 CYC  26 ETOT(AU) -3.023385949166E+03 DETOT -1.05E+03 tst  2.95E+04 PX  3.70E+02
 TTTTTTTTTTTTTTTTTTTTTTTTTTTTTT FDIK        TELAPSE      324.32 TCPU       15.20
 POSSIBLY CONDUCTING STATE - EFERMI(AU) -1.3608988E+00 (RES. CHARGE  2.19E-03;IT. 21)
 TTTTTTTTTTTTTTTTTTTTTTTTTTTTTT PDIG        TELAPSE      325.73 TCPU       15.23
 CHARGE NORMALIZATION FACTOR   1.00001218
 TOTAL ATOMIC CHARGES:
  16.1732776  16.1732776  16.1732776  16.1732776  16.1732776  16.1732776
  16.1732776  16.1732776  16.1732776  16.1732776  16.1732776  16.1732776
   7.5095851   7.5095851   7.5095851   7.5095851   7.5095851   7.5095851
   6.8709307   6.8709307   6.8709307   6.8709307   6.8709307   6.8709307
   6.9591806   6.9591806   6.9591806   6.9591806   6.9591806   6.9591806
   6.3137484   6.3137484   6.3137484   6.3137484   6.3137484   6.3137484
 TTTTTTTTTTTTTTTTTTTTTTTTTTTTTT QGAM        TELAPSE      325.83 TCPU       15.25
 TTTTTTTTTTTTTTTTTTTTTTTTTTTTTT BIEL        TELAPSE      326.31 TCPU       15.59
 TTTTTTTTTTTTTTTTTTTTTTTTTTTTTT TOTENY      TELAPSE      326.40 TCPU       15.59
 CYC  27 ETOT(AU) -5.069643674912E+03 DETOT -2.05E+03 tst  6.88E+03 PX  3.08E+02
 TTTTTTTTTTTTTTTTTTTTTTTTTTTTTT FDIK        TELAPSE      333.35 TCPU       15.60
 POSSIBLY CONDUCTING STATE - EFERMI(AU) -1.3357638E+00 (RES. CHARGE  1.41E-03;IT. 49)
 TTTTTTTTTTTTTTTTTTTTTTTTTTTTTT PDIG        TELAPSE      335.51 TCPU       15.64
 CHARGE NORMALIZATION FACTOR   0.99999215
 TOTAL ATOMIC CHARGES:
  16.1264507  16.1264507  16.1264507  16.1264507  16.1264507  16.1264507
  16.1264507  16.1264507  16.1264507  16.1264507  16.1264507  16.1264507
   7.5708138   7.5708138   7.5708138   7.5708138   7.5708138   7.5708138
   6.9015728   6.9015728   6.9015728   6.9015728   6.9015728   6.9015728
   6.9071683   6.9071683   6.9071683   6.9071683   6.9071683   6.9071683
   6.3675437   6.3675437   6.3675437   6.3675437   6.3675437   6.3675437
 TTTTTTTTTTTTTTTTTTTTTTTTTTTTTT QGAM        TELAPSE      335.55 TCPU       15.65
 TTTTTTTTTTTTTTTTTTTTTTTTTTTTTT BIEL        TELAPSE      335.88 TCPU       15.84
 TTTTTTTTTTTTTTTTTTTTTTTTTTTTTT TOTENY      TELAPSE      336.26 TCPU       15.85
 CYC  28 ETOT(AU) -6.444061930663E+03 DETOT -1.37E+03 tst  3.57E+03 PX  2.41E+02
 TTTTTTTTTTTTTTTTTTTTTTTTTTTTTT FDIK        TELAPSE      341.96 TCPU       15.85
 POSSIBLY CONDUCTING STATE - EFERMI(AU) -1.3238944E+00 (RES. CHARGE  7.56E-11;IT. 10)
 TTTTTTTTTTTTTTTTTTTTTTTTTTTTTT PDIG        TELAPSE      344.61 TCPU       15.88
 CHARGE NORMALIZATION FACTOR   1.00000000
 TOTAL ATOMIC CHARGES:
  16.1243432  16.1243432  16.1243432  16.1243432  16.1243432  16.1243432
  16.1243432  16.1243432  16.1243432  16.1243432  16.1243432  16.1243432
   7.5772158   7.5772158   7.5772158   7.5772158   7.5772158   7.5772158
   6.9169178   6.9169178   6.9169178   6.9169178   6.9169178   6.9169178
   6.9326027   6.9326027   6.9326027   6.9326027   6.9326027   6.9326027
   6.3245773   6.3245773   6.3245773   6.3245773   6.3245773   6.3245773
 TTTTTTTTTTTTTTTTTTTTTTTTTTTTTT QGAM        TELAPSE      344.91 TCPU       15.88
 TTTTTTTTTTTTTTTTTTTTTTTTTTTTTT BIEL        TELAPSE      345.75 TCPU       16.30
 TTTTTTTTTTTTTTTTTTTTTTTTTTTTTT TOTENY      TELAPSE      345.78 TCPU       16.31
 CYC  29 ETOT(AU) -7.643046919169E+03 DETOT -1.20E+03 tst  4.86E+03 PX  1.81E+02
 TTTTTTTTTTTTTTTTTTTTTTTTTTTTTT FDIK        TELAPSE      351.15 TCPU       16.31
 POSSIBLY CONDUCTING STATE - EFERMI(AU) -1.3312619E+00 (RES. CHARGE  6.29E-04;IT. 32)
 TTTTTTTTTTTTTTTTTTTTTTTTTTTTTT PDIG        TELAPSE      353.94 TCPU       16.33
 CHARGE NORMALIZATION FACTOR   0.99999651
 TOTAL ATOMIC CHARGES:
  16.0801645  16.0801645  16.0801645  16.0801645  16.0801645  16.0801645
  16.0801645  16.0801645  16.0801645  16.0801645  16.0801645  16.0801645
   7.5815871   7.5815871   7.5815871   7.5815871   7.5815871   7.5815871
   6.9051784   6.9051784   6.9051784   6.9051784   6.9051784   6.9051784
   6.9569780   6.9569780   6.9569780   6.9569780   6.9569780   6.9569780
   6.3959275   6.3959275   6.3959275   6.3959275   6.3959275   6.3959275
 TTTTTTTTTTTTTTTTTTTTTTTTTTTTTT QGAM        TELAPSE      354.07 TCPU       16.34
 TTTTTTTTTTTTTTTTTTTTTTTTTTTTTT BIEL        TELAPSE      354.76 TCPU       16.68
 TTTTTTTTTTTTTTTTTTTTTTTTTTTTTT TOTENY      TELAPSE      355.08 TCPU       16.69
 CYC  30 ETOT(AU) -8.917268950119E+03 DETOT -1.27E+03 tst  1.60E+03 PX  1.34E+02
 TTTTTTTTTTTTTTTTTTTTTTTTTTTTTT FDIK        TELAPSE      363.39 TCPU       16.70
 POSSIBLY CONDUCTING STATE - EFERMI(AU) -1.3472612E+00 (RES. CHARGE  1.76E-08;IT.  6)
 TTTTTTTTTTTTTTTTTTTTTTTTTTTTTT PDIG        TELAPSE      365.23 TCPU       16.73
 CHARGE NORMALIZATION FACTOR   1.00000000
 TOTAL ATOMIC CHARGES:
  16.2557363  16.2557363  16.2557363  16.2557363  16.2557363  16.2557363
  16.2557363  16.2557363  16.2557363  16.2557363  16.2557363  16.2557363
   7.4520982   7.4520982   7.4520982   7.4520982   7.4520982   7.4520982
   6.7977946   6.7977946   6.7977946   6.7977946   6.7977946   6.7977946
   6.8502936   6.8502936   6.8502936   6.8502936   6.8502936   6.8502936
   6.3883411   6.3883411   6.3883411   6.3883411   6.3883411   6.3883411
 TTTTTTTTTTTTTTTTTTTTTTTTTTTTTT QGAM        TELAPSE      365.27 TCPU       16.74
 TTTTTTTTTTTTTTTTTTTTTTTTTTTTTT BIEL        TELAPSE      366.10 TCPU       17.13
 TTTTTTTTTTTTTTTTTTTTTTTTTTTTTT TOTENY      TELAPSE      366.16 TCPU       17.15
 CYC  31 ETOT(AU) -9.757548213346E+03 DETOT -8.40E+02 tst  8.00E+03 PX  1.01E+02
 TTTTTTTTTTTTTTTTTTTTTTTTTTTTTT FDIK        TELAPSE      369.06 TCPU       17.15
 POSSIBLY CONDUCTING STATE - EFERMI(AU) -1.3321240E+00 (RES. CHARGE  3.22E-09;IT. 10)
 TTTTTTTTTTTTTTTTTTTTTTTTTTTTTT PDIG        TELAPSE      370.94 TCPU       17.22
 CHARGE NORMALIZATION FACTOR   1.00000000
 TOTAL ATOMIC CHARGES:
  16.1750323  16.1750323  16.1750323  16.1750323  16.1750323  16.1750323
  16.1750323  16.1750323  16.1750323  16.1750323  16.1750323  16.1750323
   7.4243567   7.4243567   7.4243567   7.4243567   7.4243567   7.4243567
   6.8444592   6.8444592   6.8444592   6.8444592   6.8444592   6.8444592
   6.9642242   6.9642242   6.9642242   6.9642242   6.9642242   6.9642242
   6.4168952   6.4168952   6.4168952   6.4168952   6.4168952   6.4168952
 TTTTTTTTTTTTTTTTTTTTTTTTTTTTTT QGAM        TELAPSE      370.99 TCPU       17.22
 TTTTTTTTTTTTTTTTTTTTTTTTTTTTTT BIEL        TELAPSE      371.82 TCPU       17.72
 TTTTTTTTTTTTTTTTTTTTTTTTTTTTTT TOTENY      TELAPSE      371.96 TCPU       17.73
 CYC  32 ETOT(AU) -1.075707255232E+04 DETOT -1.00E+03 tst  5.58E+02 PX  8.68E+01
 TTTTTTTTTTTTTTTTTTTTTTTTTTTTTT FDIK        TELAPSE      377.30 TCPU       17.73
 POSSIBLY CONDUCTING STATE - EFERMI(AU) -1.3705950E+00 (RES. CHARGE  1.24E-03;IT. 27)
 TTTTTTTTTTTTTTTTTTTTTTTTTTTTTT PDIG        TELAPSE      379.79 TCPU       17.76
 CHARGE NORMALIZATION FACTOR   0.99999312
 TOTAL ATOMIC CHARGES:
  16.2391842  16.2391842  16.2391842  16.2391842  16.2391842  16.2391842
  16.2391842  16.2391842  16.2391842  16.2391842  16.2391842  16.2391842
   7.4386303   7.4386303   7.4386303   7.4386303   7.4386303   7.4386303
   6.9011318   6.9011318   6.9011318   6.9011318   6.9011318   6.9011318
   6.8081184   6.8081184   6.8081184   6.8081184   6.8081184   6.8081184
   6.3737510   6.3737510   6.3737510   6.3737510   6.3737510   6.3737510
 TTTTTTTTTTTTTTTTTTTTTTTTTTTTTT QGAM        TELAPSE      379.90 TCPU       17.76
 TTTTTTTTTTTTTTTTTTTTTTTTTTTTTT BIEL        TELAPSE      380.17 TCPU       17.93
 TTTTTTTTTTTTTTTTTTTTTTTTTTTTTT TOTENY      TELAPSE      380.76 TCPU       17.94
 CYC  33 ETOT(AU) -1.135027866980E+04 DETOT -5.93E+02 tst  3.40E+03 PX  8.83E+01
 TTTTTTTTTTTTTTTTTTTTTTTTTTTTTT FDIK        TELAPSE      386.18 TCPU       17.94
 POSSIBLY CONDUCTING STATE - EFERMI(AU) -1.3819409E+00 (RES. CHARGE  1.81E-08;IT. 10)
 TTTTTTTTTTTTTTTTTTTTTTTTTTTTTT PDIG        TELAPSE      388.81 TCPU       18.01
 CHARGE NORMALIZATION FACTOR   1.00000000
 TOTAL ATOMIC CHARGES:
  16.1916614  16.1916614  16.1916614  16.1916614  16.1916614  16.1916614
  16.1916614  16.1916614  16.1916614  16.1916614  16.1916614  16.1916614
   7.3820718   7.3820718   7.3820718   7.3820718   7.3820718   7.3820718
   6.9684349   6.9684349   6.9684349   6.9684349   6.9684349   6.9684349
   6.8464229   6.8464229   6.8464229   6.8464229   6.8464229   6.8464229
   6.4197477   6.4197477   6.4197477   6.4197477   6.4197477   6.4197477
 TTTTTTTTTTTTTTTTTTTTTTTTTTTTTT QGAM        TELAPSE      388.94 TCPU       18.01
 TTTTTTTTTTTTTTTTTTTTTTTTTTTTTT BIEL        TELAPSE      389.38 TCPU       18.24
 TTTTTTTTTTTTTTTTTTTTTTTTTTTTTT TOTENY      TELAPSE      389.75 TCPU       18.25
 CYC  34 ETOT(AU) -1.130973451684E+04 DETOT  4.05E+01 tst  2.10E+02 PX  9.24E+01
 TTTTTTTTTTTTTTTTTTTTTTTTTTTTTT FDIK        TELAPSE      394.50 TCPU       18.25
 POSSIBLY CONDUCTING STATE - EFERMI(AU) -1.3789089E+00 (RES. CHARGE  6.44E-10;IT.  8)
 TTTTTTTTTTTTTTTTTTTTTTTTTTTTTT PDIG        TELAPSE      396.63 TCPU       18.30
 CHARGE NORMALIZATION FACTOR   1.00000000
 TOTAL ATOMIC CHARGES:
  16.1699247  16.1699247  16.1699247  16.1699247  16.1699247  16.1699247
  16.1699247  16.1699247  16.1699247  16.1699247  16.1699247  16.1699247
   7.4003957   7.4003957   7.4003957   7.4003957   7.4003957   7.4003957
   7.0445479   7.0445479   7.0445479   7.0445479   7.0445479   7.0445479
   6.8284515   6.8284515   6.8284515   6.8284515   6.8284515   6.8284515
   6.3867554   6.3867554   6.3867554   6.3867554   6.3867554   6.3867554
 TTTTTTTTTTTTTTTTTTTTTTTTTTTTTT QGAM        TELAPSE      396.79 TCPU       18.30
 TTTTTTTTTTTTTTTTTTTTTTTTTTTTTT BIEL        TELAPSE      397.30 TCPU       18.53
 TTTTTTTTTTTTTTTTTTTTTTTTTTTTTT TOTENY      TELAPSE      397.58 TCPU       18.54
 CYC  35 ETOT(AU) -1.160265130446E+04 DETOT -2.93E+02 tst  1.46E+04 PX  9.14E+01
 TTTTTTTTTTTTTTTTTTTTTTTTTTTTTT FDIK        TELAPSE      407.23 TCPU       18.54
 POSSIBLY CONDUCTING STATE - EFERMI(AU) -1.4215266E+00 (RES. CHARGE  1.41E-09;IT. 14)
 TTTTTTTTTTTTTTTTTTTTTTTTTTTTTT PDIG        TELAPSE      409.50 TCPU       18.59
 CHARGE NORMALIZATION FACTOR   1.00000000
 TOTAL ATOMIC CHARGES:
  16.1210081  16.1210081  16.1210081  16.1210081  16.1210081  16.1210081
  16.1210081  16.1210081  16.1210081  16.1210081  16.1210081  16.1210081
   7.3437044   7.3437044   7.3437044   7.3437044   7.3437044   7.3437044
   7.0698555   7.0698555   7.0698555   7.0698555   7.0698555   7.0698555
   6.9198226   6.9198226   6.9198226   6.9198226   6.9198226   6.9198226
   6.4246011   6.4246011   6.4246011   6.4246011   6.4246011   6.4246011
 TTTTTTTTTTTTTTTTTTTTTTTTTTTTTT QGAM        TELAPSE      409.76 TCPU       18.59
 TTTTTTTTTTTTTTTTTTTTTTTTTTTTTT BIEL        TELAPSE      410.03 TCPU       18.79
 TTTTTTTTTTTTTTTTTTTTTTTTTTTTTT TOTENY      TELAPSE      410.35 TCPU       18.80
 CYC  36 ETOT(AU) -1.144901305061E+04 DETOT  1.54E+02 tst  6.01E+02 PX  9.04E+01
 TTTTTTTTTTTTTTTTTTTTTTTTTTTTTT FDIK        TELAPSE      414.29 TCPU       18.81
 POSSIBLY CONDUCTING STATE - EFERMI(AU) -1.4345398E+00 (RES. CHARGE  1.08E-10;IT. 10)
 TTTTTTTTTTTTTTTTTTTTTTTTTTTTTT PDIG        TELAPSE      415.55 TCPU       18.84
 CHARGE NORMALIZATION FACTOR   1.00000000
 TOTAL ATOMIC CHARGES:
  16.1809563  16.1809563  16.1809563  16.1809563  16.1809563  16.1809563
  16.1809563  16.1809563  16.1809563  16.1809563  16.1809563  16.1809563
   7.3330073   7.3330073   7.3330073   7.3330073   7.3330073   7.3330073
   7.0662635   7.0662635   7.0662635   7.0662635   7.0662635   7.0662635
   6.8443586   6.8443586   6.8443586   6.8443586   6.8443586   6.8443586
   6.3944581   6.3944581   6.3944581   6.3944581   6.3944581   6.3944581
 TTTTTTTTTTTTTTTTTTTTTTTTTTTTTT QGAM        TELAPSE      415.83 TCPU       18.84
 TTTTTTTTTTTTTTTTTTTTTTTTTTTTTT BIEL        TELAPSE      416.35 TCPU       19.14
 TTTTTTTTTTTTTTTTTTTTTTTTTTTTTT TOTENY      TELAPSE      416.57 TCPU       19.16
 CYC  37 ETOT(AU) -1.157901634689E+04 DETOT -1.30E+02 tst  5.94E+03 PX  9.33E+01
 TTTTTTTTTTTTTTTTTTTTTTTTTTTTTT FDIK        TELAPSE      420.51 TCPU       19.16
 POSSIBLY CONDUCTING STATE - EFERMI(AU) -1.4593506E+00 (RES. CHARGE  1.81E-09;IT. 10)
 TTTTTTTTTTTTTTTTTTTTTTTTTTTTTT PDIG        TELAPSE      421.67 TCPU       19.22
 CHARGE NORMALIZATION FACTOR   1.00000000
 TOTAL ATOMIC CHARGES:
  16.1529921  16.1529921  16.1529921  16.1529921  16.1529921  16.1529921
  16.1529921  16.1529921  16.1529921  16.1529921  16.1529921  16.1529921
   7.2991243   7.2991243   7.2991243   7.2991243   7.2991243   7.2991243
   7.0826277   7.0826277   7.0826277   7.0826277   7.0826277   7.0826277
   6.9101543   6.9101543   6.9101543   6.9101543   6.9101543   6.9101543
   6.4021095   6.4021095   6.4021095   6.4021095   6.4021095   6.4021095
 TTTTTTTTTTTTTTTTTTTTTTTTTTTTTT QGAM        TELAPSE      421.80 TCPU       19.22
 TTTTTTTTTTTTTTTTTTTTTTTTTTTTTT BIEL        TELAPSE      422.19 TCPU       19.55
 TTTTTTTTTTTTTTTTTTTTTTTTTTTTTT TOTENY      TELAPSE      422.30 TCPU       19.56
 CYC  38 ETOT(AU) -1.157397970931E+04 DETOT  5.04E+00 tst  5.76E+02 PX  9.22E+01
 TTTTTTTTTTTTTTTTTTTTTTTTTTTTTT FDIK        TELAPSE      427.72 TCPU       19.58
 POSSIBLY CONDUCTING STATE - EFERMI(AU) -1.4691413E+00 (RES. CHARGE  1.85E-10;IT.  8)
 TTTTTTTTTTTTTTTTTTTTTTTTTTTTTT PDIG        TELAPSE      430.08 TCPU       19.60
 CHARGE NORMALIZATION FACTOR   1.00000000
 TOTAL ATOMIC CHARGES:
  16.1746639  16.1746639  16.1746639  16.1746639  16.1746639  16.1746639
  16.1746639  16.1746639  16.1746639  16.1746639  16.1746639  16.1746639
   7.3428605   7.3428605   7.3428605   7.3428605   7.3428605   7.3428605
   7.0805338   7.0805338   7.0805338   7.0805338   7.0805338   7.0805338
   6.8872834   6.8872834   6.8872834   6.8872834   6.8872834   6.8872834
   6.3399945   6.3399945   6.3399945   6.3399945   6.3399945   6.3399945
 TTTTTTTTTTTTTTTTTTTTTTTTTTTTTT QGAM        TELAPSE      430.31 TCPU       19.61
 TTTTTTTTTTTTTTTTTTTTTTTTTTTTTT BIEL        TELAPSE      430.60 TCPU       19.89
 TTTTTTTTTTTTTTTTTTTTTTTTTTTTTT TOTENY      TELAPSE      430.86 TCPU       19.89
 CYC  39 ETOT(AU) -1.162475381803E+04 DETOT -5.08E+01 tst  2.24E+03 PX  9.15E+01
 TTTTTTTTTTTTTTTTTTTTTTTTTTTTTT FDIK        TELAPSE      435.13 TCPU       19.89
 POSSIBLY CONDUCTING STATE - EFERMI(AU) -1.4922859E+00 (RES. CHARGE  4.50E-09;IT. 10)
 TTTTTTTTTTTTTTTTTTTTTTTTTTTTTT PDIG        TELAPSE      437.56 TCPU       19.90
 CHARGE NORMALIZATION FACTOR   1.00000000
 TOTAL ATOMIC CHARGES:
  16.1365565  16.1365565  16.1365565  16.1365565  16.1365565  16.1365565
  16.1365565  16.1365565  16.1365565  16.1365565  16.1365565  16.1365565
   7.3310213   7.3310213   7.3310213   7.3310213   7.3310213   7.3310213
   7.1204766   7.1204766   7.1204766   7.1204766   7.1204766   7.1204766
   6.9282510   6.9282510   6.9282510   6.9282510   6.9282510   6.9282510
   6.3471381   6.3471381   6.3471381   6.3471381   6.3471381   6.3471381
 TTTTTTTTTTTTTTTTTTTTTTTTTTTTTT QGAM        TELAPSE      437.87 TCPU       19.90
 TTTTTTTTTTTTTTTTTTTTTTTTTTTTTT BIEL        TELAPSE      438.36 TCPU       20.15
 TTTTTTTTTTTTTTTTTTTTTTTTTTTTTT TOTENY      TELAPSE      438.54 TCPU       20.16
 CYC  40 ETOT(AU) -1.154546799299E+04 DETOT  7.93E+01 tst  3.15E+03 PX  9.15E+01
 TTTTTTTTTTTTTTTTTTTTTTTTTTTTTT FDIK        TELAPSE      445.75 TCPU       20.19
 POSSIBLY CONDUCTING STATE - EFERMI(AU) -1.5238572E+00 (RES. CHARGE  2.02E-09;IT.  8)
 TTTTTTTTTTTTTTTTTTTTTTTTTTTTTT PDIG        TELAPSE      448.07 TCPU       20.21
 CHARGE NORMALIZATION FACTOR   1.00000000
 TOTAL ATOMIC CHARGES:
  16.2323871  16.2323871  16.2323871  16.2323871  16.2323871  16.2323871
  16.2323871  16.2323871  16.2323871  16.2323871  16.2323871  16.2323871
   7.2747394   7.2747394   7.2747394   7.2747394   7.2747394   7.2747394
   7.0931774   7.0931774   7.0931774   7.0931774   7.0931774   7.0931774
   6.8733406   6.8733406   6.8733406   6.8733406   6.8733406   6.8733406
   6.2939684   6.2939684   6.2939684   6.2939684   6.2939684   6.2939684
 TTTTTTTTTTTTTTTTTTTTTTTTTTTTTT QGAM        TELAPSE      448.34 TCPU       20.21
 TTTTTTTTTTTTTTTTTTTTTTTTTTTTTT BIEL        TELAPSE      449.04 TCPU       20.54
 TTTTTTTTTTTTTTTTTTTTTTTTTTTTTT TOTENY      TELAPSE      449.05 TCPU       20.54
 CYC  41 ETOT(AU) -1.158552169245E+04 DETOT -4.01E+01 tst  4.30E+02 PX  9.24E+01
 TTTTTTTTTTTTTTTTTTTTTTTTTTTTTT FDIK        TELAPSE      453.91 TCPU       20.54
 POSSIBLY CONDUCTING STATE - EFERMI(AU) -1.5149113E+00 (RES. CHARGE  7.07E-09;IT.  6)
 TTTTTTTTTTTTTTTTTTTTTTTTTTTTTT PDIG        TELAPSE      456.00 TCPU       20.57
 CHARGE NORMALIZATION FACTOR   1.00000000
 TOTAL ATOMIC CHARGES:
  16.1304719  16.1304719  16.1304719  16.1304719  16.1304719  16.1304719
  16.1304719  16.1304719  16.1304719  16.1304719  16.1304719  16.1304719
   7.3215512   7.3215512   7.3215512   7.3215512   7.3215512   7.3215512
   7.0587753   7.0587753   7.0587753   7.0587753   7.0587753   7.0587753
   6.9480937   6.9480937   6.9480937   6.9480937   6.9480937   6.9480937
   6.4106362   6.4106362   6.4106362   6.4106362   6.4106362   6.4106362
 TTTTTTTTTTTTTTTTTTTTTTTTTTTTTT QGAM        TELAPSE      456.21 TCPU       20.57
 TTTTTTTTTTTTTTTTTTTTTTTTTTTTTT BIEL        TELAPSE      456.95 TCPU       20.93
 TTTTTTTTTTTTTTTTTTTTTTTTTTTTTT TOTENY      TELAPSE      456.99 TCPU       20.95
 CYC  42 ETOT(AU) -1.159397143672E+04 DETOT -8.45E+00 tst  5.08E+03 PX  9.22E+01
 TTTTTTTTTTTTTTTTTTTTTTTTTTTTTT FDIK        TELAPSE      461.87 TCPU       20.95
 POSSIBLY CONDUCTING STATE - EFERMI(AU) -1.5656622E+00 (RES. CHARGE  1.23E-08;IT. 10)
 TTTTTTTTTTTTTTTTTTTTTTTTTTTTTT PDIG        TELAPSE      463.15 TCPU       20.99
 CHARGE NORMALIZATION FACTOR   1.00000000
 TOTAL ATOMIC CHARGES:
  16.2427037  16.2427037  16.2427037  16.2427037  16.2427037  16.2427037
  16.2427037  16.2427037  16.2427037  16.2427037  16.2427037  16.2427037
   7.2858620   7.2858620   7.2858620   7.2858620   7.2858620   7.2858620
   7.0088661   7.0088661   7.0088661   7.0088661   7.0088661   7.0088661
   6.9247175   6.9247175   6.9247175   6.9247175   6.9247175   6.9247175
   6.2951470   6.2951470   6.2951470   6.2951470   6.2951470   6.2951470
 TTTTTTTTTTTTTTTTTTTTTTTTTTTTTT QGAM        TELAPSE      463.26 TCPU       20.99
 TTTTTTTTTTTTTTTTTTTTTTTTTTTTTT BIEL        TELAPSE      463.69 TCPU       21.36
 TTTTTTTTTTTTTTTTTTTTTTTTTTTTTT TOTENY      TELAPSE      463.82 TCPU       21.37
 CYC  43 ETOT(AU) -1.163320202884E+04 DETOT -3.92E+01 tst  9.43E+03 PX  9.12E+01
 TTTTTTTTTTTTTTTTTTTTTTTTTTTTTT FDIK        TELAPSE      470.12 TCPU       21.37
 POSSIBLY CONDUCTING STATE - EFERMI(AU) -1.5656372E+00 (RES. CHARGE  1.68E-08;IT.  6)
 TTTTTTTTTTTTTTTTTTTTTTTTTTTTTT PDIG        TELAPSE      472.01 TCPU       21.39
 CHARGE NORMALIZATION FACTOR   1.00000000
 TOTAL ATOMIC CHARGES:
  16.2127693  16.2127693  16.2127693  16.2127693  16.2127693  16.2127693
  16.2127693  16.2127693  16.2127693  16.2127693  16.2127693  16.2127693
   7.2976595   7.2976595   7.2976595   7.2976595   7.2976595   7.2976595
   7.0271506   7.0271506   7.0271506   7.0271506   7.0271506   7.0271506
   6.9759804   6.9759804   6.9759804   6.9759804   6.9759804   6.9759804
   6.2736710   6.2736710   6.2736710   6.2736710   6.2736710   6.2736710
 TTTTTTTTTTTTTTTTTTTTTTTTTTTTTT QGAM        TELAPSE      472.17 TCPU       21.39
 TTTTTTTTTTTTTTTTTTTTTTTTTTTTTT BIEL        TELAPSE      472.61 TCPU       21.68
 TTTTTTTTTTTTTTTTTTTTTTTTTTTTTT TOTENY      TELAPSE      472.86 TCPU       21.69
 CYC  44 ETOT(AU) -1.144272129153E+04 DETOT  1.90E+02 tst  3.77E+03 PX  9.41E+01
 TTTTTTTTTTTTTTTTTTTTTTTTTTTTTT FDIK        TELAPSE      478.31 TCPU       21.70
 POSSIBLY CONDUCTING STATE - EFERMI(AU) -1.5401335E+00 (RES. CHARGE  4.60E-08;IT.  6)
 TTTTTTTTTTTTTTTTTTTTTTTTTTTTTT PDIG        TELAPSE      479.76 TCPU       21.76
 CHARGE NORMALIZATION FACTOR   1.00000000
 TOTAL ATOMIC CHARGES:
  16.1897478  16.1897478  16.1897478  16.1897478  16.1897478  16.1897478
  16.1897478  16.1897478  16.1897478  16.1897478  16.1897478  16.1897478
   7.3436703   7.3436703   7.3436703   7.3436703   7.3436703   7.3436703
   7.0547920   7.0547920   7.0547920   7.0547920   7.0547920   7.0547920
   6.9352284   6.9352284   6.9352284   6.9352284   6.9352284   6.9352284
   6.2868138   6.2868138   6.2868138   6.2868138   6.2868138   6.2868138
 TTTTTTTTTTTTTTTTTTTTTTTTTTTTTT QGAM        TELAPSE      479.81 TCPU       21.76
 TTTTTTTTTTTTTTTTTTTTTTTTTTTTTT BIEL        TELAPSE      480.32 TCPU       22.27
 TTTTTTTTTTTTTTTTTTTTTTTTTTTTTT TOTENY      TELAPSE      480.47 TCPU       22.28
 CYC  45 ETOT(AU) -1.168226904880E+04 DETOT -2.40E+02 tst  1.59E+03 PX  9.36E+01
 TTTTTTTTTTTTTTTTTTTTTTTTTTTTTT FDIK        TELAPSE      484.97 TCPU       22.30
 POSSIBLY CONDUCTING STATE - EFERMI(AU) -1.5549903E+00 (RES. CHARGE  2.28E-10;IT.  8)
 TTTTTTTTTTTTTTTTTTTTTTTTTTTTTT PDIG        TELAPSE      487.31 TCPU       22.36
 CHARGE NORMALIZATION FACTOR   1.00000000
 TOTAL ATOMIC CHARGES:
  16.1978935  16.1978935  16.1978935  16.1978935  16.1978935  16.1978935
  16.1978935  16.1978935  16.1978935  16.1978935  16.1978935  16.1978935
   7.2630585   7.2630585   7.2630585   7.2630585   7.2630585   7.2630585
   7.0410232   7.0410232   7.0410232   7.0410232   7.0410232   7.0410232
   6.9789226   6.9789226   6.9789226   6.9789226   6.9789226   6.9789226
   6.3212088   6.3212088   6.3212088   6.3212088   6.3212088   6.3212088
 TTTTTTTTTTTTTTTTTTTTTTTTTTTTTT QGAM        TELAPSE      487.47 TCPU       22.37
 TTTTTTTTTTTTTTTTTTTTTTTTTTTTTT BIEL        TELAPSE      487.91 TCPU       22.60
 TTTTTTTTTTTTTTTTTTTTTTTTTTTTTT TOTENY      TELAPSE      488.20 TCPU       22.61
 CYC  46 ETOT(AU) -1.159337038314E+04 DETOT  8.89E+01 tst  1.09E+03 PX  9.09E+01
 TTTTTTTTTTTTTTTTTTTTTTTTTTTTTT FDIK        TELAPSE      495.74 TCPU       22.62
 POSSIBLY CONDUCTING STATE - EFERMI(AU) -1.5677260E+00 (RES. CHARGE  4.56E-11;IT. 10)
 TTTTTTTTTTTTTTTTTTTTTTTTTTTTTT PDIG        TELAPSE      498.04 TCPU       22.65
 CHARGE NORMALIZATION FACTOR   1.00000000
 TOTAL ATOMIC CHARGES:
  16.2621703  16.2621703  16.2621703  16.2621703  16.2621703  16.2621703
  16.2621703  16.2621703  16.2621703  16.2621703  16.2621703  16.2621703
   7.3107665   7.3107665   7.3107665   7.3107665   7.3107665   7.3107665
   7.0031229   7.0031229   7.0031229   7.0031229   7.0031229   7.0031229
   6.9004151   6.9004151   6.9004151   6.9004151   6.9004151   6.9004151
   6.2613551   6.2613551   6.2613551   6.2613551   6.2613551   6.2613551
 TTTTTTTTTTTTTTTTTTTTTTTTTTTTTT QGAM        TELAPSE      498.17 TCPU       22.65
 TTTTTTTTTTTTTTTTTTTTTTTTTTTTTT BIEL        TELAPSE      498.79 TCPU       22.94
 TTTTTTTTTTTTTTTTTTTTTTTTTTTTTT TOTENY      TELAPSE      498.84 TCPU       22.94
 CYC  47 ETOT(AU) -1.161350835937E+04 DETOT -2.01E+01 tst  1.14E+03 PX  9.18E+01
 TTTTTTTTTTTTTTTTTTTTTTTTTTTTTT FDIK        TELAPSE      503.80 TCPU       22.95
 POSSIBLY CONDUCTING STATE - EFERMI(AU) -1.5657023E+00 (RES. CHARGE  8.79E-10;IT.  6)
 TTTTTTTTTTTTTTTTTTTTTTTTTTTTTT PDIG        TELAPSE      506.01 TCPU       22.97
 CHARGE NORMALIZATION FACTOR   1.00000000
 TOTAL ATOMIC CHARGES:
  16.1370318  16.1370318  16.1370318  16.1370318  16.1370318  16.1370318
  16.1370318  16.1370318  16.1370318  16.1370318  16.1370318  16.1370318
   7.3322848   7.3322848   7.3322848   7.3322848   7.3322848   7.3322848
   7.0352319   7.0352319   7.0352319   7.0352319   7.0352319   7.0352319
   7.0235034   7.0235034   7.0235034   7.0235034   7.0235034   7.0235034
   6.3349162   6.3349162   6.3349162   6.3349162   6.3349162   6.3349162
 TTTTTTTTTTTTTTTTTTTTTTTTTTTTTT QGAM        TELAPSE      506.15 TCPU       22.97
 TTTTTTTTTTTTTTTTTTTTTTTTTTTTTT BIEL        TELAPSE      506.70 TCPU       23.27
 TTTTTTTTTTTTTTTTTTTTTTTTTTTTTT TOTENY      TELAPSE      506.90 TCPU       23.28
 CYC  48 ETOT(AU) -1.161071723958E+04 DETOT  2.79E+00 tst  7.79E+02 PX  9.14E+01
 TTTTTTTTTTTTTTTTTTTTTTTTTTTTTT FDIK        TELAPSE      511.26 TCPU       23.29
 POSSIBLY CONDUCTING STATE - EFERMI(AU) -1.5801390E+00 (RES. CHARGE  3.61E-11;IT. 10)
 TTTTTTTTTTTTTTTTTTTTTTTTTTTTTT PDIG        TELAPSE      513.17 TCPU       23.32
 CHARGE NORMALIZATION FACTOR   1.00000000
 TOTAL ATOMIC CHARGES:
  16.2517455  16.2517455  16.2517455  16.2517455  16.2517455  16.2517455
  16.2517455  16.2517455  16.2517455  16.2517455  16.2517455  16.2517455
   7.3108082   7.3108082   7.3108082   7.3108082   7.3108082   7.3108082
   6.9575126   6.9575126   6.9575126   6.9575126   6.9575126   6.9575126
   6.9568876   6.9568876   6.9568876   6.9568876   6.9568876   6.9568876
   6.2713006   6.2713006   6.2713006   6.2713006   6.2713006   6.2713006
 TTTTTTTTTTTTTTTTTTTTTTTTTTTTTT QGAM        TELAPSE      513.33 TCPU       23.33
 TTTTTTTTTTTTTTTTTTTTTTTTTTTTTT BIEL        TELAPSE      513.96 TCPU       23.65
 TTTTTTTTTTTTTTTTTTTTTTTTTTTTTT TOTENY      TELAPSE      514.25 TCPU       23.66
 CYC  49 ETOT(AU) -1.164010956340E+04 DETOT -2.94E+01 tst  3.14E+02 PX  9.07E+01
 TTTTTTTTTTTTTTTTTTTTTTTTTTTTTT FDIK        TELAPSE      517.51 TCPU       23.68
 POSSIBLY CONDUCTING STATE - EFERMI(AU) -1.5757971E+00 (RES. CHARGE  1.65E-10;IT.  8)
 TTTTTTTTTTTTTTTTTTTTTTTTTTTTTT PDIG        TELAPSE      518.90 TCPU       23.71
 CHARGE NORMALIZATION FACTOR   1.00000000
 TOTAL ATOMIC CHARGES:
  16.1441628  16.1441628  16.1441628  16.1441628  16.1441628  16.1441628
  16.1441628  16.1441628  16.1441628  16.1441628  16.1441628  16.1441628
   7.3321422   7.3321422   7.3321422   7.3321422   7.3321422   7.3321422
   7.0426826   7.0426826   7.0426826   7.0426826   7.0426826   7.0426826
   6.9983567   6.9983567   6.9983567   6.9983567   6.9983567   6.9983567
   6.3384928   6.3384928   6.3384928   6.3384928   6.3384928   6.3384928
 TTTTTTTTTTTTTTTTTTTTTTTTTTTTTT QGAM        TELAPSE      519.05 TCPU       23.71
 TTTTTTTTTTTTTTTTTTTTTTTTTTTTTT BIEL        TELAPSE      519.50 TCPU       23.96
 +++ ENERGIES IN A.U. +++
 ::: EXT EL-POLE : L =  0                         -2.3711764253202E+04
 ::: EXT EL-POLE : L =  1                          3.1922430232564E+02
 ::: EXT EL-POLE : L =  2                          5.6722618219879E+01
 ::: EXT EL-POLE : L =  3                          1.3064642929707E+01
 ::: EXT EL-POLE : L =  4                          1.9733989138956E+00
 ::: EXT EL-SPHEROPOLE                             4.2587465619680E+01
 ::: BIELET ZONE E-E                               1.8415053465973E+04
 ::: TOTAL E-E                                    -4.8631383592206E+03
 ::: TOTAL E-N + N-E                              -1.2036801629414E+04
 ::: TOTAL N-N                                    -2.9209076490815E+01
 ::: KINETIC ENERGY                                5.3436525135090E+03
 ::: TOTAL   ENERGY                               -1.1585496551617E+04
 ::: VIRIAL COEFFICIENT                            6.3129605545466E-01
 TTTTTTTTTTTTTTTTTTTTTTTTTTTTTT TOTENY      TELAPSE      519.80 TCPU       23.97
 CYC  50 ETOT(AU) -1.158549655162E+04 DETOT  5.46E+01 tst  7.49E+03 PX  9.07E+01

 == SCF ENDED - TOO MANY CYCLES            E(AU) -1.1585496551617E+04 CYCLES  50

 TOTAL ENERGY(HF)(AU)(  50) -1.1585496551617E+04 DE 5.5E+01 tst 7.5E+03 PX 9.1E+01
 EIGENVECTORS IN FORTRAN UNIT  8
 TTTTTTTTTTTTTTTTTTTTTTTTTTTTTT END         TELAPSE      520.99 TCPU       24.15
 EEEEEEEEEE TERMINATION  DATE 23 02 2010 TIME 04:12:57.4
NODE    0 CPU TIME =        24.150
NODE    1 CPU TIME =        30.360
NODE    2 CPU TIME =        30.720
NODE    3 CPU TIME =        40.570
NODE    4 CPU TIME =       116.810
NODE    5 CPU TIME =       127.510
NODE    6 CPU TIME =       122.160
NODE    7 CPU TIME =       127.970
NODE    8 CPU TIME =        63.910
NODE    9 CPU TIME =        45.570
NODE   10 CPU TIME =       117.900
NODE   11 CPU TIME =       308.870
NODE   12 CPU TIME =       117.930
NODE   13 CPU TIME =        50.270
NODE   14 CPU TIME =       127.540
NODE   15 CPU TIME =        52.580
    TOTAL CPU TIME =      1504.820
Tue Feb 23 04:12:59 EST 2010
