/home/piero/bin/CRY06/Pcrystal
/scr/piero/CRY_data/tmp_p4328
TEST27 - CORUNDUM
CRYSTAL
0 0 0
167
4.7602  12.9933
2
8     0.30624   0.   0.25
13    0.        0.   0.35216
OPTGEOM
FULLOPTG
ENDOPT
END
8  2
1 0 3 2. 0.
1 1 3 6. 0.
13 3
1 0 3 2. 0.
1 1 3 8. 0.
1 1 3 3. 0.
99 0
END
SHRINK
3  3
END

Tue Feb 23 12:20:08 GMT 2010
directory scratch (integrals and temporary files) /home/piero/bin/CRY06_tmp
 PROCESS            0  OF            2  WORKING

         
 *******************************************************************************
 *                                                                             *
 *                                CRYSTAL06                                    *
 *                              Release : 1.0                                  *
 *                      V1.0.2 - parallel executable                           *
 *                                                                             *
 *                                                                             *
 *                                                                             *
 *                              MAIN AUTHORS                                   *
 *                                                                             *
 *    R. DOVESI(1,10), V.R. SAUNDERS(2), C. ROETTI(1,10), R. ORLANDO (1,3),    *
 *  C.M. ZICOVICH-WILSON(1,4), F. PASCALE(5), B. CIVALLERI(1,10), K. DOLL(6),  *
 *       N.M. HARRISON(2,7), I. J. BUSH(2), Ph. D'ARCO(8), M. LLUNELL(9)       *
 *                                                                             *
 * (1) THEORETICAL CHEMISTRY GROUP - UNIVERSITA' DI TORINO - TORINO (ITALY)    *
 *      http://www.crystal.unito.it                                            *
 * (2) COMPUTATIONAL SCIENCE & ENGINEERING DEPARTMENT - CCLRC DARESBURY (UK)   *
 *     http://www.cse.clrc.ac.uk/cmg/CRYSTAL/                                  *
 * (3) UNIVERSITA' DEL PIEMONTE ORIENTALE - ALESSANDRIA (ITALY)                *
 * (4) UNIVERSIDAD AUTONOMA DEL ESTADO DE MORELOS - CUERNAVACA (MEXICO)        *
 * (5) UNIVERSITE' HENRI POINCARE' - NANCY (FRANCE)                            *
 * (6) MPI FUER FESTKOERPERFORSCHUNG - STUTTGART (GERMANY)                     *
 * (7) IMPERIAL COLLEGE - LONDON (UK)                                          *
 * (8) UNIVERSITE' PIERRE ET MARIE CURIE - PARIS (FRANCE)                      *
 * (9) UNIVERSIDAD DE BARCELONA - BARCELONA (SPAIN)                            *
 *(10) NIS - NANOSTRUCTURED INTERFACES AND SURFACES - TORINO (ITALY)           *
 *     http://www.crystal.unito.it                                             *
 *******************************************************************************
 EEEEEEEEEE STARTING  DATE 23 02 2010 TIME 12:20:10.5
 TEST27 - CORUNDUM                                                               

 CRYSTAL CALCULATION
 (INPUT ACCORDING TO THE INTERNATIONAL TABLES FOR X-RAY CRYSTALLOGRAPHY)
 CRYSTAL FAMILY                       :  HEXAGONAL   
 CRYSTAL CLASS  (GROTH - 1921)        :  DITRIGONAL SCALENOHEDRAL             

 SPACE GROUP (CENTROSYMMETRIC)        :  R -3 C          

 LATTICE PARAMETERS  (ANGSTROMS AND DEGREES) - CONVENTIONAL CELL
        A           B           C        ALPHA        BETA       GAMMA
     4.76020     4.76020    12.99330    90.00000    90.00000   120.00000


 NUMBER OF IRREDUCIBLE ATOMS IN THE CONVENTIONAL CELL:    2

 INPUT COORDINATES

 ATOM AT. N.              COORDINATES
   1   8     3.062400000000E-01  0.000000000000E+00  2.500000000000E-01
   2  13     0.000000000000E+00  0.000000000000E+00  3.521600000000E-01

 *******************************************************************************

 << INFORMATION >>: FROM NOW ON, ALL COORDINATES REFER TO THE PRIMITIVE CELL

 *******************************************************************************

 LATTICE PARAMETERS  (ANGSTROMS AND DEGREES) - PRIMITIVE CELL
       A          B          C         ALPHA     BETA     GAMMA        VOLUME
    5.12948    5.12948    5.12948    55.29155  55.29155  55.29155     84.992234

 COORDINATES OF THE EQUIVALENT ATOMS (FRACTIONARY UNITS)

 N. ATOM EQUIV AT. N.          X                  Y                  Z

   1   1   1    8 O    -4.43760000000E-01 -5.62400000000E-02  2.50000000000E-01
   2   1   2    8 O     2.50000000000E-01 -4.43760000000E-01 -5.62400000000E-02
   3   1   3    8 O    -5.62400000000E-02  2.50000000000E-01 -4.43760000000E-01
   4   1   4    8 O     4.43760000000E-01  5.62400000000E-02 -2.50000000000E-01
   5   1   5    8 O    -2.50000000000E-01  4.43760000000E-01  5.62400000000E-02
   6   1   6    8 O     5.62400000000E-02 -2.50000000000E-01  4.43760000000E-01

   7   2   1   13 AL    3.52160000000E-01  3.52160000000E-01  3.52160000000E-01
   8   2   2   13 AL    1.47840000000E-01  1.47840000000E-01  1.47840000000E-01
   9   2   3   13 AL   -3.52160000000E-01 -3.52160000000E-01 -3.52160000000E-01
  10   2   4   13 AL   -1.47840000000E-01 -1.47840000000E-01 -1.47840000000E-01

 NUMBER OF SYMMETRY OPERATORS         :   12
 *******************************************************************************
 * GEOMETRY EDITING - INPUT COORDINATES ARE GIVEN IN ANGSTROM          
 *******************************************************************************

 GEOMETRY NOW FULLY CONSISTENT WITH THE GROUP
 INFORMATION **** FULLOPTG **** full optimization, atoms and cell
 *******************************************************************************
 COMBINED CELL/ATOM OPTIMIZATION CONTROL

 MAXIMUM GRADIENT COMPONENT   0.00045 MAXIMUM DISPLACEMENT COMPONENT     0.00030
 R.M.S. OF GRADIENT COMPONENT 0.00180 R.M.S. OF DISPLACEMENT COMPONENTS  0.00120
 THRESHOLD ON ENERGY CHANGE 0.100E-06 EXTRAPOLATING POLYNOMIAL ORDER           2
 MAXIMUM ALLOWED NUMBER OF STEPS  100 SORTING OF ENERGY POINTS:               NO
 ANALYTICAL  GRADIENT                 HESSIAN UPDATING                      BFGS
 STEP SIZE NUMERICAL GRADIENT 0.00100
 INITIAL HESSIAN MATRIX: SCHLEGEL MODEL 2
 *******************************************************************************


 GCALCO - MAX INDICES DIRECT LATTICE VECTOR  14  14  14
 NO.OF VECTORS CREATED 6999 STARS  522 RMAX    98.86931 BOHR

 GEOMETRY FOR WAVE FUNCTION - DIMENSIONALITY OF THE SYSTEM    3
 (NON PERIODIC DIRECTION: LATTICE PARAMETER FORMALLY SET TO 500)
 *******************************************************************************
 LATTICE PARAMETERS (ANGSTROMS AND DEGREES) - BOHR = 0.5291772083 ANGSTROM
 PRIMITIVE CELL - CENTRING CODE 7/0 VOLUME=    84.992234 - DENSITY 3.984 g/cm^3
         A              B              C           ALPHA      BETA       GAMMA 
     5.12948294     5.12948294     5.12948294    55.291548  55.291548  55.291548
 *******************************************************************************
 ATOMS IN THE ASYMMETRIC UNIT    2 - ATOMS IN THE UNIT CELL:   10
     ATOM              X/A                 Y/B                 Z/C    
 *******************************************************************************
   1 T   8 O    -4.437600000000E-01 -5.624000000000E-02  2.500000000000E-01
   2 F   8 O     2.500000000000E-01 -4.437600000000E-01 -5.624000000000E-02
   3 F   8 O    -5.624000000000E-02  2.500000000000E-01 -4.437600000000E-01
   4 F   8 O     4.437600000000E-01  5.624000000000E-02 -2.500000000000E-01
   5 F   8 O    -2.500000000000E-01  4.437600000000E-01  5.624000000000E-02
   6 F   8 O     5.624000000000E-02 -2.500000000000E-01  4.437600000000E-01
   7 T  13 AL    3.521600000000E-01  3.521600000000E-01  3.521600000000E-01
   8 F  13 AL    1.478400000000E-01  1.478400000000E-01  1.478400000000E-01
   9 F  13 AL   -3.521600000000E-01 -3.521600000000E-01 -3.521600000000E-01
  10 F  13 AL   -1.478400000000E-01 -1.478400000000E-01 -1.478400000000E-01

 TRANSFORMATION MATRIX PRIMITIVE-CRYSTALLOGRAPHIC CELL
  1.0000  0.0000  1.0000 -1.0000  1.0000  1.0000  0.0000 -1.0000  1.0000

 *******************************************************************************
 CRYSTALLOGRAPHIC CELL (VOLUME=        254.97670093)
         A              B              C           ALPHA      BETA       GAMMA 
     4.76020000     4.76020000    12.99330000    90.000000  90.000000 120.000000

 COORDINATES IN THE CRYSTALLOGRAPHIC CELL
     ATOM              X/A                 Y/B                 Z/C    
 *******************************************************************************
   1 T   8 O    -3.604266666667E-01 -3.333333333333E-01 -8.333333333333E-02
   2 F   8 O     3.333333333333E-01 -2.709333333333E-02 -8.333333333333E-02
   3 F   8 O     2.709333333333E-02  3.604266666667E-01 -8.333333333333E-02
   4 F   8 O     3.604266666667E-01  3.333333333333E-01  8.333333333333E-02
   5 F   8 O    -3.333333333333E-01  2.709333333333E-02  8.333333333333E-02
   6 F   8 O    -2.709333333333E-02 -3.604266666667E-01  8.333333333333E-02
   7 T  13 AL    3.333333333333E-01 -3.333333333333E-01  1.882666666667E-02
   8 F  13 AL    0.000000000000E+00  2.468403515657E-17  1.478400000000E-01
   9 F  13 AL   -3.333333333333E-01  3.333333333333E-01 -1.882666666667E-02
  10 F  13 AL    0.000000000000E+00  0.000000000000E+00 -1.478400000000E-01

 T = ATOM BELONGING TO THE ASYMMETRIC UNIT

 ****  12 SYMMOPS - TRANSLATORS IN FRACTIONARY UNITS
  V INV                   ROTATION MATRICES                       TRANSLATOR
  1  1  1.00  0.00  0.00  0.00  1.00  0.00  0.00  0.00  1.00    0.00  0.00  0.00
  2  3  0.00  0.00  1.00  1.00  0.00  0.00  0.00  1.00  0.00    0.00  0.00  0.00
  3  2  0.00  1.00  0.00  0.00  0.00  1.00  1.00  0.00  0.00    0.00  0.00  0.00
  4  4  0.00 -1.00  0.00 -1.00  0.00  0.00  0.00  0.00 -1.00    0.50  0.50  0.50
  5  5 -1.00  0.00  0.00  0.00  0.00 -1.00  0.00 -1.00  0.00    0.50  0.50  0.50
  6  6  0.00  0.00 -1.00  0.00 -1.00  0.00 -1.00  0.00  0.00    0.50  0.50  0.50
  7  7 -1.00  0.00  0.00  0.00 -1.00  0.00  0.00  0.00 -1.00    0.00  0.00  0.00
  8  9  0.00  0.00 -1.00 -1.00  0.00  0.00  0.00 -1.00  0.00    0.00  0.00  0.00
  9  8  0.00 -1.00  0.00  0.00  0.00 -1.00 -1.00  0.00  0.00    0.00  0.00  0.00
 10 10  0.00  1.00  0.00  1.00  0.00  0.00  0.00  0.00  1.00    0.50  0.50  0.50
 11 11  1.00  0.00  0.00  0.00  0.00  1.00  0.00  1.00  0.00    0.50  0.50  0.50
 12 12  0.00  0.00  1.00  0.00  1.00  0.00  1.00  0.00  0.00    0.50  0.50  0.50

 DIRECT LATTICE VECTORS CARTESIAN COMPONENTS (ANGSTROM)
          X                    Y                    Z
   0.274830275140E+01   0.000000000000E+00   0.433110000000E+01
  -0.137415137570E+01   0.238010000000E+01   0.433110000000E+01
  -0.137415137570E+01  -0.238010000000E+01   0.433110000000E+01


 CARTESIAN COORDINATES - PRIMITIVE CELL
 *******************************************************************************
 *      ATOM          X(ANGSTROM)         Y(ANGSTROM)         Z(ANGSTROM)
 *******************************************************************************
   1     8 O    -1.485842399515E+00 -7.288818240000E-01 -1.082775000000E+00
   2     8 O     1.374151375698E+00 -9.223363520000E-01 -1.082775000000E+00
   3     8 O     1.116910238168E-01  1.651218176000E+00 -1.082775000000E+00
   4     8 O     1.485842399515E+00  7.288818240000E-01  1.082775000000E+00
   5     8 O    -1.374151375698E+00  9.223363520000E-01  1.082775000000E+00
   6     8 O    -1.116910238168E-01 -1.651218176000E+00  1.082775000000E+00
   7    13 AL   -2.748302751396E+00  0.000000000000E+00  2.446205280000E-01
   8    13 AL    0.000000000000E+00  1.175009441523E-16  1.920929472000E+00
   9    13 AL   -1.374151375698E+00 -2.380100000000E+00 -2.446205280000E-01
  10    13 AL    0.000000000000E+00  0.000000000000E+00 -1.920929472000E+00

 *******************************************************************************
 LOCAL ATOMIC FUNCTIONS BASIS SET
 *******************************************************************************
   ATOM  X(AU)  Y(AU)  Z(AU)    NO. TYPE  EXPONENT  S COEF   P COEF   D/F/G COEF
 *******************************************************************************
   1 O  -2.808 -1.377 -2.046
                                  1 S  
                                         1.307E+02 1.543E-01 0.000E+00 0.000E+00
                                         2.381E+01 5.353E-01 0.000E+00 0.000E+00
                                         6.444E+00 4.446E-01 0.000E+00 0.000E+00
                             2-   5 SP 
                                         5.033E+00-9.997E-02 1.559E-01 0.000E+00
                                         1.170E+00 3.995E-01 6.077E-01 0.000E+00
                                         3.804E-01 7.001E-01 3.920E-01 0.000E+00
   2 O   2.597 -1.743 -2.046
   3 O   0.211  3.120 -2.046
   4 O   2.808  1.377  2.046
   5 O  -2.597  1.743  2.046
   6 O  -0.211 -3.120  2.046
   7 AL -5.194  0.000  0.462
                                 31 S  
                                         3.514E+02 1.543E-01 0.000E+00 0.000E+00
                                         6.401E+01 5.353E-01 0.000E+00 0.000E+00
                                         1.732E+01 4.446E-01 0.000E+00 0.000E+00
                            32-  35 SP 
                                         1.890E+01-9.997E-02 1.559E-01 0.000E+00
                                         4.392E+00 3.995E-01 6.077E-01 0.000E+00
                                         1.428E+00 7.001E-01 3.920E-01 0.000E+00
                            36-  39 SP 
                                         1.395E+00-2.196E-01 1.059E-02 0.000E+00
                                         3.893E-01 2.256E-01 5.952E-01 0.000E+00
                                         1.524E-01 9.004E-01 4.620E-01 0.000E+00
   8 AL  0.000  0.000  3.630
   9 AL -2.597 -4.498 -0.462
  10 AL  0.000  0.000 -3.630
 *******************************************************************************
 N. OF ATOMS PER CELL       10  COULOMB OVERLAP TOL         (T1) 10** -6
 NUMBER OF SHELLS           24  COULOMB PENETRATION TOL     (T2) 10** -6
 NUMBER OF AO               66  EXCHANGE OVERLAP TOL        (T3) 10** -6
 N. OF ELECTRONS PER CELL  100  EXCHANGE PSEUDO OVP (F(G))  (T4) 10** -6
 CORE ELECTRONS PER CELL    52  EXCHANGE PSEUDO OVP (P(G))  (T5) 10**-12
 N. OF SYMMETRY OPERATORS   12  POLE ORDER IN MONO ZONE                4
 *******************************************************************************
 TYPE OF CALCULATION :  RESTRICTED CLOSED SHELL
 HARTREE-FOCK HAMILTONIAN

 CAPPA: IS1=  3 IS2=  3 IS3=  3K POINTS MONKHORST NET    6 SYMMOPS K SPACE 12 SYMMOPS G SPACE 12


 CAPPA1: ISJ1=  3 ISJ2=  3 ISJ3=  3K POINTS GILAT NET    6 SYMMOPS K SPACE 12 SYMMOPS G SPACE 12

 *******************************************************************************
 MAX NUMBER OF SCF CYCLES      50  CONVERGENCE ON DELTAP        10**-16
 NO MIXING OF F MATRICES           CONVERGENCE ON ENERGY        10**- 7
 SHRINK. FACT.(MONKH.)    3  3  3  NUMBER OF K POINTS IN THE IBZ      6
 SHRINKING FACTOR(GILAT NET)    3  NUMBER OF K POINTS(GILAT NET)      6
 *******************************************************************************
 *** K POINTS COORDINATES (OBLIQUE COORDINATES IN UNITS OF IS =  3)
   1-R(  0  0  0)   2-C(  1  0  0)   3-C(  1  1  0)   4-C(  2  1  0)
   5-C(  1  1  1)   6-C(  2  1  1)

 DIRECT LATTICE VECTORS COMPON. (A.U.)     RECIP. LATTICE VECTORS COMPON. (A.U.) 
        X            Y            Z              X            Y            Z
    5.1935395    0.0000000    8.1845929      0.8065386    0.0000000    0.2558948
   -2.5967698    4.4977372    8.1845929     -0.4032693    0.6984829    0.2558948
   -2.5967698   -4.4977372    8.1845929     -0.4032693   -0.6984829    0.2558948

 DISK SPACE FOR EIGENVECTORS (FTN 10)      47916 REALS

 SYMMETRY ADAPTION OF THE BLOCH FUNCTIONS ENABLED
 TTTTTTTTTTTTTTTTTTTTTTTTTTTTTT gordsh1     TELAPSE        0.24 TCPU        0.02

 DIMENSIONS  P(G)=   62554 F(G)=   11262 P(G),F(G) (IRR)    3614
 MAX G-VECTOR INDEX FOR 1- AND 2-ELECTRON INTEGRALS 111

 INFORMATION **** GENBUF **** COULOMB BIPO BUFFER LENGTH (WORDS) =    280050
 TTTTTTTTTTTTTTTTTTTTTTTTTTTTTT INPUT       TELAPSE        0.24 TCPU        0.02

 NEIGHBORS OF THE NON-EQUIVALENT ATOMS

 N = NUMBER OF NEIGHBORS AT DISTANCE R
    ATOM  N     R/ANG      R/AU   NEIGHBORS (ATOM LABELS AND CELL INDICES)
   1 O    2     1.8551     3.5057   9 AL   0 0 0  10 AL   0 0 0
   1 O    2     1.9716     3.7257   7 AL   0 0 0   8 AL  -1 0 0
   1 O    2     2.5249     4.7714   2 O   -1 1 0   3 O   -1 0 1
   1 O    2     2.6200     4.9511   4 O   -1 0 1   4 O   -1 0 0
   1 O    4     2.7255     5.1505   5 O    0 0 0   5 O    0-1 0   6 O    0 0 0
                                    6 O   -1 0 0
   1 O    4     2.8665     5.4170   2 O    0 0 0   2 O   -1 0 1   3 O    0 0 0
                                    3 O    0-1 1

   7 AL   3     1.8551     3.5057   4 O   -1 0 1   5 O    0 0 0   6 O   -1 1 0
   7 AL   3     1.9716     3.7257   1 O    0 0 0   2 O   -1 1 0   3 O   -1 0 1
   7 AL   1     2.6548     5.0168   8 AL  -1 0 0
   7 AL   3     2.7915     5.2752   9 AL   0 0 0   9 AL  -1 1 0   9 AL   0 1-1
   7 AL   3     3.2192     6.0834   8 AL   0 0 0   8 AL  -1 0 1   8 AL  -1 1 0
   7 AL   3     3.2219     6.0885   4 O   -1 1 0   5 O   -1 0 1   6 O    0 0 0


 SYMMETRY ALLOWED ELASTIC DISTORTION 1
  0.5773503  0.0000000  0.0000000
  0.0000000  0.5773503  0.0000000
  0.0000000  0.0000000  0.5773503

 SYMMETRY ALLOWED ELASTIC DISTORTION 2
  0.4082483  0.0000000  0.0000000
  0.0000000  0.4082483  0.0000000
  0.0000000  0.0000000 -0.8164966

 SYMMETRY ALLOWED INTERNAL DEGREE(S) OF FREEDOM:   2
 TTTTTTTTTTTTTTTTTTTTTTTTTTTTTT SYMM        TELAPSE        0.25 TCPU        0.03
 TTTTTTTTTTTTTTTTTTTTTTTTTTTTTT INT_SCREEN  TELAPSE        0.25 TCPU        0.04
 *******************************************************************************
 COORDINATE AND CELL OPTIMIZATION - POINT    1
 INFORMATION **** GENBUF **** COULOMB BIPO BUFFER LENGTH (WORDS) =    280050
 INFORMATION **** EXCBUF **** EXCH. BIPO BUFFER: WORDS USED =    180126
crystal executable from directory /home/piero/bin/CRY06
test cases input: extensions .d12 , .d3
CRY2K6_GRA graphical scripts /home/piero/bin/CRY06/crgra2006/maps06, doss06, band06
CRY2K6_UTILS miscellanea utilities /home/piero/bin/CRY06/utils06/runcry06 runprop06 spacg
 PROCESS            1  OF            2  WORKING
 TTTTTTTTTTTTTTTTTTTTTTTTTTTTTT MONIRR      TELAPSE        0.45 TCPU        0.23

  GAUSS70 FOR COULOMB   GAUSS70 FOR EXCHANGE
 **SHELL_ORTHODOX** SPACE FOR BIEL. INTEGRALS     2 BUFFERS
 TTTTTTTTTTTTTTTTTTTTTTTTTTTTTT SHLC        TELAPSE        5.28 TCPU        5.06
 TTTTTTTTTTTTTTTTTTTTTTTTTTTTTT MONMAD      TELAPSE        5.48 TCPU        5.25
 TTTTTTTTTTTTTTTTTTTTTTTTTTTTTT INT_CALC    TELAPSE        5.48 TCPU        5.25

 *******************************************************************************
 TEST27 - CORUNDUM                                                               
 CRYSTAL - SCF - TYPE OF CALCULATION :  RESTRICTED CLOSED SHELL
 *******************************************************************************

 CAPPA: IS1=  3 IS2=  3 IS3=  3K POINTS MONKHORST NET    6 SYMMOPS K SPACE 12 SYMMOPS G SPACE 12


 CAPPA1: ISJ1=  3 ISJ2=  3 ISJ3=  3K POINTS GILAT NET    6 SYMMOPS K SPACE 12 SYMMOPS G SPACE 12

 TTTTTTTTTTTTTTTTTTTTTTTTTTTTTT SDIK        TELAPSE        5.48 TCPU        5.26

 AAAAAAAAAAAAAAAAAAAAAAAAAAAAAAAAAAAAAAAAAAAAAAAAAAAAAAAAAAAAAAAAAAAAAAAAAAAAAAA
         ATOMIC WAVEFUNCTION(S)


 NUCLEAR CHARGE  8.0  SYMMETRY SPECIES            S    P
 N. ELECTRONS    8.0  NUMBER OF PRIMITIVE GTOS    6    3
                      NUMBER OF CONTRACTED GTOS   2    1
                      NUMBER OF CLOSED SHELLS     2    0
                      OPEN SHELL OCCUPATION       0    4

  ZNUC SCFIT  TOTAL HF ENERGY   KINETIC ENERGY   VIRIAL THEOREM ACCURACY
   8.0   1   -7.380415026E+01  7.344496710E+01 -2.004890507E+00  0.0E+00

 NUCLEAR CHARGE 13.0  SYMMETRY SPECIES            S    P
 N. ELECTRONS   13.0  NUMBER OF PRIMITIVE GTOS    9    6
                      NUMBER OF CONTRACTED GTOS   3    2
                      NUMBER OF CLOSED SHELLS     3    1
                      OPEN SHELL OCCUPATION       0    1

  ZNUC SCFIT  TOTAL HF ENERGY   KINETIC ENERGY   VIRIAL THEOREM ACCURACY
  13.0   3   -2.388583402E+02  2.366235607E+02 -2.009444451E+00  1.7E-06

 AAAAAAAAAAAAAAAAAAAAAAAAAAAAAAAAAAAAAAAAAAAAAAAAAAAAAAAAAAAAAAAAAAAAAAAAAAAAAAA

 CHARGE NORMALIZATION FACTOR   1.00000000
 TOTAL ATOMIC CHARGES:
   8.0000000   8.0000000   8.0000000   8.0000000   8.0000000   8.0000000
  13.0000000  13.0000000  13.0000000  13.0000000
 TTTTTTTTTTTTTTTTTTTTTTTTTTTTTT QGAM        TELAPSE        5.49 TCPU        5.26
 TTTTTTTTTTTTTTTTTTTTTTTTTTTTTT BIEL        TELAPSE        5.56 TCPU        5.33
 TTTTTTTTTTTTTTTTTTTTTTTTTTTTTT TOTENY      TELAPSE        5.56 TCPU        5.34
 CYC   0 ETOT(AU) -1.398374871254E+03 DETOT -1.40E+03 tst  0.00E+00 PX  1.00E+00
 TTTTTTTTTTTTTTTTTTTTTTTTTTTTTT FDIK        TELAPSE        5.58 TCPU        5.35
 INSULATING STATE - TOP OF VALENCE BANDS (A.U.) -2.0780470E-01
 TTTTTTTTTTTTTTTTTTTTTTTTTTTTTT PDIG        TELAPSE        5.60 TCPU        5.37
 CHARGE NORMALIZATION FACTOR   1.00000000
 TOTAL ATOMIC CHARGES:
   8.9638917   8.9638917   8.9638917   8.9638917   8.9638917   8.9638917
  11.5541624  11.5541624  11.5541624  11.5541624
 TTTTTTTTTTTTTTTTTTTTTTTTTTTTTT QGAM        TELAPSE        5.61 TCPU        5.38
 TTTTTTTTTTTTTTTTTTTTTTTTTTTTTT BIEL        TELAPSE        5.70 TCPU        5.48
 TTTTTTTTTTTTTTTTTTTTTTTTTTTTTT TOTENY      TELAPSE        5.71 TCPU        5.48
 CYC   1 ETOT(AU) -1.400213662805E+03 DETOT -1.84E+00 tst  0.00E+00 PX  1.00E+00
 TTTTTTTTTTTTTTTTTTTTTTTTTTTTTT FDIK        TELAPSE        5.72 TCPU        5.49
 INSULATING STATE - TOP OF VALENCE BANDS (A.U.) -1.0019432E-01
 TTTTTTTTTTTTTTTTTTTTTTTTTTTTTT PDIG        TELAPSE        5.73 TCPU        5.51
 CHARGE NORMALIZATION FACTOR   1.00000000
 TOTAL ATOMIC CHARGES:
   8.6721596   8.6721596   8.6721596   8.6721596   8.6721596   8.6721596
  11.9917606  11.9917606  11.9917606  11.9917606
 TTTTTTTTTTTTTTTTTTTTTTTTTTTTTT QGAM        TELAPSE        5.74 TCPU        5.51
 TTTTTTTTTTTTTTTTTTTTTTTTTTTTTT BIEL        TELAPSE        5.84 TCPU        5.61
 TTTTTTTTTTTTTTTTTTTTTTTTTTTTTT TOTENY      TELAPSE        5.84 TCPU        5.61
 CYC   2 ETOT(AU) -1.400384436496E+03 DETOT -1.71E-01 tst  1.06E-02 PX  1.17E-01
 TTTTTTTTTTTTTTTTTTTTTTTTTTTTTT FDIK        TELAPSE        5.85 TCPU        5.62
 INSULATING STATE - TOP OF VALENCE BANDS (A.U.) -1.8332976E-01
 TTTTTTTTTTTTTTTTTTTTTTTTTTTTTT PDIG        TELAPSE        5.87 TCPU        5.64
 CHARGE NORMALIZATION FACTOR   1.00000000
 TOTAL ATOMIC CHARGES:
   8.7424023   8.7424023   8.7424023   8.7424023   8.7424023   8.7424023
  11.8863966  11.8863966  11.8863966  11.8863966
 TTTTTTTTTTTTTTTTTTTTTTTTTTTTTT QGAM        TELAPSE        5.88 TCPU        5.65
 TTTTTTTTTTTTTTTTTTTTTTTTTTTTTT BIEL        TELAPSE        5.97 TCPU        5.74
 TTTTTTTTTTTTTTTTTTTTTTTTTTTTTT TOTENY      TELAPSE        5.97 TCPU        5.75
 CYC   3 ETOT(AU) -1.400392390294E+03 DETOT -7.95E-03 tst  8.25E-04 PX  6.16E-02
 TTTTTTTTTTTTTTTTTTTTTTTTTTTTTT FDIK        TELAPSE        5.98 TCPU        5.76
 INSULATING STATE - TOP OF VALENCE BANDS (A.U.) -1.6527037E-01
 TTTTTTTTTTTTTTTTTTTTTTTTTTTTTT PDIG        TELAPSE        6.00 TCPU        5.78
 CHARGE NORMALIZATION FACTOR   1.00000000
 TOTAL ATOMIC CHARGES:
   8.7276546   8.7276546   8.7276546   8.7276546   8.7276546   8.7276546
  11.9085181  11.9085181  11.9085181  11.9085181
 TTTTTTTTTTTTTTTTTTTTTTTTTTTTTT QGAM        TELAPSE        6.01 TCPU        5.78
 TTTTTTTTTTTTTTTTTTTTTTTTTTTTTT BIEL        TELAPSE        6.11 TCPU        5.88
 TTTTTTTTTTTTTTTTTTTTTTTTTTTTTT TOTENY      TELAPSE        6.11 TCPU        5.88
 CYC   4 ETOT(AU) -1.400392800765E+03 DETOT -4.10E-04 tst  2.13E-05 PX  5.74E-03
 TTTTTTTTTTTTTTTTTTTTTTTTTTTTTT FDIK        TELAPSE        6.12 TCPU        5.89
 INSULATING STATE - TOP OF VALENCE BANDS (A.U.) -1.6910782E-01
 TTTTTTTTTTTTTTTTTTTTTTTTTTTTTT PDIG        TELAPSE        6.14 TCPU        5.90
 CHARGE NORMALIZATION FACTOR   1.00000000
 TOTAL ATOMIC CHARGES:
   8.7312588   8.7312588   8.7312588   8.7312588   8.7312588   8.7312588
  11.9031118  11.9031118  11.9031118  11.9031118
 TTTTTTTTTTTTTTTTTTTTTTTTTTTTTT QGAM        TELAPSE        6.14 TCPU        5.91
 TTTTTTTTTTTTTTTTTTTTTTTTTTTTTT BIEL        TELAPSE        6.24 TCPU        6.01
 TTTTTTTTTTTTTTTTTTTTTTTTTTTTTT TOTENY      TELAPSE        6.24 TCPU        6.01
 CYC   5 ETOT(AU) -1.400392825504E+03 DETOT -2.47E-05 tst  1.51E-06 PX  3.08E-03
 TTTTTTTTTTTTTTTTTTTTTTTTTTTTTT FDIK        TELAPSE        6.25 TCPU        6.02
 INSULATING STATE - TOP OF VALENCE BANDS (A.U.) -1.6818869E-01
 TTTTTTTTTTTTTTTTTTTTTTTTTTTTTT PDIG        TELAPSE        6.27 TCPU        6.04
 CHARGE NORMALIZATION FACTOR   1.00000000
 TOTAL ATOMIC CHARGES:
   8.7304762   8.7304762   8.7304762   8.7304762   8.7304762   8.7304762
  11.9042857  11.9042857  11.9042857  11.9042857
 TTTTTTTTTTTTTTTTTTTTTTTTTTTTTT QGAM        TELAPSE        6.28 TCPU        6.05
 TTTTTTTTTTTTTTTTTTTTTTTTTTTTTT BIEL        TELAPSE        6.37 TCPU        6.14
 TTTTTTTTTTTTTTTTTTTTTTTTTTTTTT TOTENY      TELAPSE        6.38 TCPU        6.14
 CYC   6 ETOT(AU) -1.400392826828E+03 DETOT -1.32E-06 tst  5.97E-08 PX  3.27E-04
 TTTTTTTTTTTTTTTTTTTTTTTTTTTTTT FDIK        TELAPSE        6.39 TCPU        6.16
 INSULATING STATE - TOP OF VALENCE BANDS (A.U.) -1.6839543E-01
 TTTTTTTTTTTTTTTTTTTTTTTTTTTTTT PDIG        TELAPSE        6.40 TCPU        6.17
 CHARGE NORMALIZATION FACTOR   1.00000000
 TOTAL ATOMIC CHARGES:
   8.7306592   8.7306592   8.7306592   8.7306592   8.7306592   8.7306592
  11.9040111  11.9040111  11.9040111  11.9040111
 TTTTTTTTTTTTTTTTTTTTTTTTTTTTTT QGAM        TELAPSE        6.41 TCPU        6.18
 TTTTTTTTTTTTTTTTTTTTTTTTTTTTTT BIEL        TELAPSE        6.51 TCPU        6.28
 TTTTTTTTTTTTTTTTTTTTTTTTTTTTTT TOTENY      TELAPSE        6.51 TCPU        6.28
 CYC   7 ETOT(AU) -1.400392827064E+03 DETOT -2.36E-07 tst  7.45E-09 PX  1.57E-04
 TTTTTTTTTTTTTTTTTTTTTTTTTTTTTT FDIK        TELAPSE        6.52 TCPU        6.29
 INSULATING STATE - TOP OF VALENCE BANDS (A.U.) -1.6834965E-01
 TTTTTTTTTTTTTTTTTTTTTTTTTTTTTT PDIG        TELAPSE        6.54 TCPU        6.31
 CHARGE NORMALIZATION FACTOR   1.00000000
 TOTAL ATOMIC CHARGES:
   8.7306167   8.7306167   8.7306167   8.7306167   8.7306167   8.7306167
  11.9040749  11.9040749  11.9040749  11.9040749
 TTTTTTTTTTTTTTTTTTTTTTTTTTTTTT QGAM        TELAPSE        6.55 TCPU        6.32
 TTTTTTTTTTTTTTTTTTTTTTTTTTTTTT BIEL        TELAPSE        6.64 TCPU        6.41
 TTTTTTTTTTTTTTTTTTTTTTTTTTTTTT TOTENY      TELAPSE        6.65 TCPU        6.42
 CYC   8 ETOT(AU) -1.400392827079E+03 DETOT -1.55E-08 tst  4.80E-10 PX  2.33E-05
 TTTTTTTTTTTTTTTTTTTTTTTTTTTTTT FDIK        TELAPSE        6.66 TCPU        6.42
 INSULATING STATE - TOP OF VALENCE BANDS (A.U.) -1.6836110E-01
 TTTTTTTTTTTTTTTTTTTTTTTTTTTTTT PDIG        TELAPSE        6.67 TCPU        6.44
 CHARGE NORMALIZATION FACTOR   1.00000000
 TOTAL ATOMIC CHARGES:
   8.7306255   8.7306255   8.7306255   8.7306255   8.7306255   8.7306255
  11.9040617  11.9040617  11.9040617  11.9040617
 TTTTTTTTTTTTTTTTTTTTTTTTTTTTTT QGAM        TELAPSE        6.68 TCPU        6.45
 TTTTTTTTTTTTTTTTTTTTTTTTTTTTTT BIEL        TELAPSE        6.78 TCPU        6.54
 +++ ENERGIES IN A.U. +++
 ::: EXT EL-POLE : L =  0                         -2.5076725916581E+03
 ::: EXT EL-POLE : L =  1                         -6.8873940069677E-03
 ::: EXT EL-POLE : L =  2                         -3.2518639495200E-03
 ::: EXT EL-POLE : L =  3                         -3.7199255256081E-03
 ::: EXT EL-POLE : L =  4                         -1.2843837720270E-03
 ::: EXT EL-SPHEROPOLE                             2.1815417746911E+01
 ::: BIELET ZONE E-E                               2.7337227220409E+03
 ::: TOTAL E-E                                     2.4785040456249E+02
 ::: TOTAL E-N + N-E                              -2.6663300814885E+03
 ::: TOTAL N-N                                    -3.6471770385693E+02
 ::: KINETIC ENERGY                                1.3828045536925E+03
 ::: TOTAL   ENERGY                               -1.4003928270905E+03
 ::: VIRIAL COEFFICIENT                            9.9368055118209E-01
 TTTTTTTTTTTTTTTTTTTTTTTTTTTTTT TOTENY      TELAPSE        6.78 TCPU        6.55
 CYC   9 ETOT(AU) -1.400392827090E+03 DETOT -1.14E-08 tst  1.40E-10 PX  2.33E-05

 == SCF ENDED - CONVERGENCE ON ENERGY      E(AU) -1.4003928270905E+03 CYCLES   9

 TOTAL ENERGY(HF)(AU)(   9) -1.4003928270905E+03 DE-1.1E-08 tst 1.4E-10 PX 2.3E-05

 *******************************************************************************
 *                             FORCE CALCULATION                               *
 *******************************************************************************

 INFORMATION **** EXCPOG **** EXCH. BIPO BUFFER LENGTH (WORDS) =    720504
 INFORMATION **** GENPOG **** BIPO BUFFER LENGTH (WORDS) =     94200
 TTTTTTTTTTTTTTTTTTTTTTTTTTTTTT SHELXG      TELAPSE       93.58 TCPU       73.68

 CARTESIAN FORCES (ANALYTICAL)
   ATOM                     X                   Y                   Z
   1   8            -1.369300099885E-02  7.905657812707E-03 -1.776356839400E-14
   2   8            -8.086124362687E-15 -1.581131562541E-02 -1.598721155460E-14
   3   8             1.369300099886E-02  7.905657812698E-03 -1.206442353426E-14
   4   8             1.369300099885E-02 -7.905657812719E-03  2.035408878479E-14
   5   8             1.826316875508E-14  1.581131562542E-02  2.657133772270E-14
   6   8            -1.369300099887E-02 -7.905657812693E-03  2.309263891220E-14
   7  13            -5.952573906398E-15 -2.954039203532E-15 -7.160450561220E-03
   8  13             7.191797818277E-16 -4.873335512133E-16  7.160450561218E-03
   9  13             4.308673188100E-15  2.825146281828E-15  7.160450561241E-03
  10  13             2.923122380795E-15 -3.602621020659E-15 -7.160450561260E-03

 RESULTANT FORCE     2.406061461180E-15  4.440892098501E-16  3.330669073875E-15

ATOMIC PART

 SYMMETRY ALLOWED FORCES (ANALYTICAL) (DIRECTION, FORCE)

    1 -3.8729655E-02    2 -1.4320901E-02

CELL PART

 SYMMETRY ALLOWED FORCES (ANALYTICAL) (DIRECTION, FORCE)

    1 -3.2693054E-01    2  1.3775946E-03
 TTTTTTTTTTTTTTTTTTTTTTTTTTTTTT TOTGRA      TELAPSE      103.52 TCPU       78.30
 INFORMATION **** optc001 **** GEOMETRY OUTPUT FILE
 CLASSICAL MODEL (SCHLEGEL) USED AS INITIAL HESSIAN MATRIX
 REFERENCE GEOMETRY DEFINED

 MAX GRADIENT      0.326931  THRESHOLD              0.000450 CONVERGED NO
 RMS GRADIENT      0.164765  THRESHOLD              0.000300 CONVERGED NO

 GRADIENT NORM     0.329531  GRADIENT THRESHOLD     0.500000

 PREDICTED ENERGY CHANGE    -0.170E-03

 INITIAL DISPLACEMENTS
 -0.000036  0.000033 -0.000518  0.000105
 TTTTTTTTTTTTTTTTTTTTTTTTTTTTTT OPTI        TELAPSE      103.85 TCPU       78.62

 OPTOPTOPTOPTOPTOPTOPTOPTOPTOPTOPTOPTOPTOPTOPTOPTOPTOPTOPTOPTOPTOPTOPTOPTOPTOPT

 STARTING GEOMETRY OPTIMIZATION - INFORMATION ON SCF MOVED TO SCFOUT.LOG
 GEOMETRY OPTIMIZATION INFORMATION STORED IN OPTINFO.DAT

 OPTOPTOPTOPTOPTOPTOPTOPTOPTOPTOPTOPTOPTOPTOPTOPTOPTOPTOPTOPTOPTOPTOPTOPTOPTOPT
 *******************************************************************************
 COORDINATE AND CELL OPTIMIZATION - POINT    2
 *******************************************************************************
 LATTICE PARAMETERS (ANGSTROMS AND DEGREES) - BOHR = 0.5291772083 ANGSTROM
 PRIMITIVE CELL - CENTRING CODE 7/0 VOLUME=    84.978178 - DENSITY 3.984 g/cm^3
         A              B              C           ALPHA      BETA       GAMMA 
     5.12918294     5.12918294     5.12918294    55.291927  55.291927  55.291927
 *******************************************************************************
 ATOMS IN THE ASYMMETRIC UNIT    2 - ATOMS IN THE UNIT CELL:   10
     ATOM              X/A                 Y/B                 Z/C    
 *******************************************************************************
   1 T   8 O    -4.437616159945E-01 -5.623838400550E-02  2.500000000000E-01
   2 F   8 O     2.500000000000E-01 -4.437616159945E-01 -5.623838400550E-02
   3 F   8 O    -5.623838400550E-02  2.500000000000E-01 -4.437616159945E-01
   4 F   8 O     4.437616159945E-01  5.623838400550E-02 -2.500000000000E-01
   5 F   8 O    -2.500000000000E-01  4.437616159945E-01  5.623838400550E-02
   6 F   8 O     5.623838400550E-02 -2.500000000000E-01  4.437616159945E-01
   7 T  13 AL    3.521606707953E-01  3.521606707953E-01  3.521606707953E-01
   8 F  13 AL    1.478393292047E-01  1.478393292047E-01  1.478393292047E-01
   9 F  13 AL   -3.521606707953E-01 -3.521606707953E-01 -3.521606707953E-01
  10 F  13 AL   -1.478393292047E-01 -1.478393292047E-01 -1.478393292047E-01

 TRANSFORMATION MATRIX PRIMITIVE-CRYSTALLOGRAPHIC CELL
  1.0000  0.0000  1.0000 -1.0000  1.0000  1.0000  0.0000 -1.0000  1.0000

 *******************************************************************************
 CRYSTALLOGRAPHIC CELL (VOLUME=        254.93453407)
         A              B              C           ALPHA      BETA       GAMMA 
     4.75995161     4.75995161    12.99250710    90.000000  90.000000 120.000000

 COORDINATES IN THE CRYSTALLOGRAPHIC CELL
     ATOM              X/A                 Y/B                 Z/C    
 *******************************************************************************
   1 T   8 O    -3.604282826612E-01 -3.333333333333E-01 -8.333333333333E-02
   2 F   8 O     3.333333333333E-01 -2.709494932784E-02 -8.333333333333E-02
   3 F   8 O     2.709494932784E-02  3.604282826612E-01 -8.333333333333E-02
   4 F   8 O     3.604282826612E-01  3.333333333333E-01  8.333333333333E-02
   5 F   8 O    -3.333333333333E-01  2.709494932784E-02  8.333333333333E-02
   6 F   8 O    -2.709494932784E-02 -3.604282826612E-01  8.333333333333E-02
   7 T  13 AL    3.333333333333E-01 -3.333333333333E-01  1.882733746198E-02
   8 F  13 AL    0.000000000000E+00  2.468403515657E-17  1.478393292047E-01
   9 F  13 AL   -3.333333333333E-01  3.333333333333E-01 -1.882733746198E-02
  10 F  13 AL    0.000000000000E+00  0.000000000000E+00 -1.478393292047E-01

 T = ATOM BELONGING TO THE ASYMMETRIC UNIT

 TOTAL ENERGY(HF)(AU)(   3) -1.4003929972054E+03     DE (AU)   -1.701E-04

 SYMMETRY ALLOWED FORCES  (COORDINATE, FORCE)

    1 -3.8708622E-02    2 -1.4330374E-02    3 -3.2657894E-01    4  1.3789417E-03

 GRADIENT NORM     0.329180  GRADIENT THRESHOLD     0.500000

 PREDICTED ENERGY CHANGE    -0.796E-01

 MAX GRADIENT      0.326579  THRESHOLD              0.000450 CONVERGED NO
 RMS GRADIENT      0.164590  THRESHOLD              0.000300 CONVERGED NO
 MAX DISPLAC.      0.479839  THRESHOLD              0.001800 CONVERGED NO
 RMS DISPLAC.      0.248765  THRESHOLD              0.001200 CONVERGED NO
 TTTTTTTTTTTTTTTTTTTTTTTTTTTTTT OPTI        TELAPSE      257.26 TCPU      156.51
 *******************************************************************************
 COORDINATE AND CELL OPTIMIZATION - POINT    3
 *******************************************************************************
 LATTICE PARAMETERS (ANGSTROMS AND DEGREES) - BOHR = 0.5291772083 ANGSTROM
 PRIMITIVE CELL - CENTRING CODE 7/0 VOLUME=    72.602823 - DENSITY 4.663 g/cm^3
         A              B              C           ALPHA      BETA       GAMMA 
     4.84867143     4.84867143     4.84867143    55.720867  55.720867  55.720867
 *******************************************************************************
 ATOMS IN THE ASYMMETRIC UNIT    2 - ATOMS IN THE UNIT CELL:   10
     ATOM              X/A                 Y/B                 Z/C    
 *******************************************************************************
   1 T   8 O    -4.467799972654E-01 -5.322000273460E-02  2.500000000000E-01
   2 F   8 O     2.500000000000E-01 -4.467799972654E-01 -5.322000273460E-02
   3 F   8 O    -5.322000273460E-02  2.500000000000E-01 -4.467799972654E-01
   4 F   8 O     4.467799972654E-01  5.322000273460E-02 -2.500000000000E-01
   5 F   8 O    -2.500000000000E-01  4.467799972654E-01  5.322000273460E-02
   6 F   8 O     5.322000273460E-02 -2.500000000000E-01  4.467799972654E-01
   7 T  13 AL    3.524792653457E-01  3.524792653457E-01  3.524792653457E-01
   8 F  13 AL    1.475207346543E-01  1.475207346543E-01  1.475207346543E-01
   9 F  13 AL   -3.524792653457E-01 -3.524792653457E-01 -3.524792653457E-01
  10 F  13 AL   -1.475207346543E-01 -1.475207346543E-01 -1.475207346543E-01

 TRANSFORMATION MATRIX PRIMITIVE-CRYSTALLOGRAPHIC CELL
  1.0000  0.0000  1.0000 -1.0000  1.0000  1.0000  0.0000 -1.0000  1.0000

 *******************************************************************************
 CRYSTALLOGRAPHIC CELL (VOLUME=        217.80846769)
         A              B              C           ALPHA      BETA       GAMMA 
     4.53175647     4.53175647    12.24647222    90.000000  90.000000 120.000000

 COORDINATES IN THE CRYSTALLOGRAPHIC CELL
     ATOM              X/A                 Y/B                 Z/C    
 *******************************************************************************
   1 T   8 O    -3.634466639321E-01 -3.333333333333E-01 -8.333333333333E-02
   2 F   8 O     3.333333333333E-01 -3.011333059873E-02 -8.333333333333E-02
   3 F   8 O     3.011333059873E-02  3.634466639321E-01 -8.333333333333E-02
   4 F   8 O     3.634466639321E-01  3.333333333333E-01  8.333333333333E-02
   5 F   8 O    -3.333333333333E-01  3.011333059873E-02  8.333333333333E-02
   6 F   8 O    -3.011333059873E-02 -3.634466639321E-01  8.333333333333E-02
   7 T  13 AL    3.333333333333E-01 -3.333333333333E-01  1.914593201233E-02
   8 F  13 AL    0.000000000000E+00  2.468403515657E-17  1.475207346543E-01
   9 F  13 AL   -3.333333333333E-01  3.333333333333E-01 -1.914593201233E-02
  10 F  13 AL    0.000000000000E+00  0.000000000000E+00 -1.475207346543E-01

 T = ATOM BELONGING TO THE ASYMMETRIC UNIT

 TOTAL ENERGY(HF)(AU)(   7) -1.4004635321167E+03     DE (AU)   -7.053E-02

 SYMMETRY ALLOWED FORCES  (COORDINATE, FORCE)

    1  3.6439709E-04    2 -1.1766590E-02    3  6.1819762E-02    4  1.3949127E-03

 GRADIENT NORM     0.062946  GRADIENT THRESHOLD     0.500000

 PREDICTED ENERGY CHANGE    -0.242E-02

 MAX GRADIENT      0.061820  THRESHOLD              0.000450 CONVERGED NO
 RMS GRADIENT      0.031473  THRESHOLD              0.000300 CONVERGED NO
 MAX DISPLAC.      0.076583  THRESHOLD              0.001800 CONVERGED NO
 RMS DISPLAC.      0.039035  THRESHOLD              0.001200 CONVERGED NO
 TTTTTTTTTTTTTTTTTTTTTTTTTTTTTT OPTI        TELAPSE      380.26 TCPU      234.75
 *******************************************************************************
 COORDINATE AND CELL OPTIMIZATION - POINT    4
 *******************************************************************************
 LATTICE PARAMETERS (ANGSTROMS AND DEGREES) - BOHR = 0.5291772083 ANGSTROM
 PRIMITIVE CELL - CENTRING CODE 7/0 VOLUME=    74.393723 - DENSITY 4.551 g/cm^3
         A              B              C           ALPHA      BETA       GAMMA 
     4.88994133     4.88994133     4.88994133    55.680532  55.680532  55.680532
 *******************************************************************************
 ATOMS IN THE ASYMMETRIC UNIT    2 - ATOMS IN THE UNIT CELL:   10
     ATOM              X/A                 Y/B                 Z/C    
 *******************************************************************************
   1 T   8 O    -4.467839844577E-01 -5.321601554231E-02  2.500000000000E-01
   2 F   8 O     2.500000000000E-01 -4.467839844577E-01 -5.321601554231E-02
   3 F   8 O    -5.321601554231E-02  2.500000000000E-01 -4.467839844577E-01
   4 F   8 O     4.467839844577E-01  5.321601554231E-02 -2.500000000000E-01
   5 F   8 O    -2.500000000000E-01  4.467839844577E-01  5.321601554231E-02
   6 F   8 O     5.321601554231E-02 -2.500000000000E-01  4.467839844577E-01
   7 T  13 AL    3.522716274074E-01  3.522716274074E-01  3.522716274074E-01
   8 F  13 AL    1.477283725926E-01  1.477283725926E-01  1.477283725926E-01
   9 F  13 AL   -3.522716274074E-01 -3.522716274074E-01 -3.522716274074E-01
  10 F  13 AL   -1.477283725926E-01 -1.477283725926E-01 -1.477283725926E-01

 TRANSFORMATION MATRIX PRIMITIVE-CRYSTALLOGRAPHIC CELL
  1.0000  0.0000  1.0000 -1.0000  1.0000  1.0000  0.0000 -1.0000  1.0000

 *******************************************************************************
 CRYSTALLOGRAPHIC CELL (VOLUME=        223.18116851)
         A              B              C           ALPHA      BETA       GAMMA 
     4.56728529     4.56728529    12.35408642    90.000000  90.000000 120.000000

 COORDINATES IN THE CRYSTALLOGRAPHIC CELL
     ATOM              X/A                 Y/B                 Z/C    
 *******************************************************************************
   1 T   8 O    -3.634506511244E-01 -3.333333333333E-01 -8.333333333333E-02
   2 F   8 O     3.333333333333E-01 -3.011731779102E-02 -8.333333333333E-02
   3 F   8 O     3.011731779102E-02  3.634506511244E-01 -8.333333333333E-02
   4 F   8 O     3.634506511244E-01  3.333333333333E-01  8.333333333333E-02
   5 F   8 O    -3.333333333333E-01  3.011731779102E-02  8.333333333333E-02
   6 F   8 O    -3.011731779102E-02 -3.634506511244E-01  8.333333333333E-02
   7 T  13 AL    3.333333333333E-01 -3.333333333333E-01  1.893829407403E-02
   8 F  13 AL    0.000000000000E+00  2.468403515657E-17  1.477283725926E-01
   9 F  13 AL   -3.333333333333E-01  3.333333333333E-01 -1.893829407403E-02
  10 F  13 AL    0.000000000000E+00  0.000000000000E+00 -1.477283725926E-01

 T = ATOM BELONGING TO THE ASYMMETRIC UNIT

 TOTAL ENERGY(HF)(AU)(   5) -1.4004658019432E+03     DE (AU)   -2.270E-03

 SYMMETRY ALLOWED FORCES  (COORDINATE, FORCE)

    1 -1.4659185E-03    2 -8.8680058E-03    3 -4.5477869E-03    4  5.9857808E-04

 GRADIENT NORM     0.010091  GRADIENT THRESHOLD     0.500000

 PREDICTED ENERGY CHANGE    -0.359E-04

 MAX GRADIENT      0.008868  THRESHOLD              0.000450 CONVERGED NO
 RMS GRADIENT      0.005046  THRESHOLD              0.000300 CONVERGED NO
 MAX DISPLAC.      0.005467  THRESHOLD              0.001800 CONVERGED NO
 RMS DISPLAC.      0.003723  THRESHOLD              0.001200 CONVERGED NO
 TTTTTTTTTTTTTTTTTTTTTTTTTTTTTT OPTI        TELAPSE      518.24 TCPU      312.44
 *******************************************************************************
 COORDINATE AND CELL OPTIMIZATION - POINT    5
 *******************************************************************************
 LATTICE PARAMETERS (ANGSTROMS AND DEGREES) - BOHR = 0.5291772083 ANGSTROM
 PRIMITIVE CELL - CENTRING CODE 7/0 VOLUME=    74.295163 - DENSITY 4.557 g/cm^3
         A              B              C           ALPHA      BETA       GAMMA 
     4.88772722     4.88772722     4.88772722    55.681787  55.681787  55.681787
 *******************************************************************************
 ATOMS IN THE ASYMMETRIC UNIT    2 - ATOMS IN THE UNIT CELL:   10
     ATOM              X/A                 Y/B                 Z/C    
 *******************************************************************************
   1 T   8 O    -4.469139927934E-01 -5.308600720659E-02  2.500000000000E-01
   2 F   8 O     2.500000000000E-01 -4.469139927934E-01 -5.308600720659E-02
   3 F   8 O    -5.308600720659E-02  2.500000000000E-01 -4.469139927934E-01
   4 F   8 O     4.469139927934E-01  5.308600720659E-02 -2.500000000000E-01
   5 F   8 O    -2.500000000000E-01  4.469139927934E-01  5.308600720659E-02
   6 F   8 O     5.308600720659E-02 -2.500000000000E-01  4.469139927934E-01
   7 T  13 AL    3.521602945935E-01  3.521602945935E-01  3.521602945935E-01
   8 F  13 AL    1.478397054065E-01  1.478397054065E-01  1.478397054065E-01
   9 F  13 AL   -3.521602945935E-01 -3.521602945935E-01 -3.521602945935E-01
  10 F  13 AL   -1.478397054065E-01 -1.478397054065E-01 -1.478397054065E-01

 TRANSFORMATION MATRIX PRIMITIVE-CRYSTALLOGRAPHIC CELL
  1.0000  0.0000  1.0000 -1.0000  1.0000  1.0000  0.0000 -1.0000  1.0000

 *******************************************************************************
 CRYSTALLOGRAPHIC CELL (VOLUME=        222.88548938)
         A              B              C           ALPHA      BETA       GAMMA 
     4.56531190     4.56531190    12.34838769    90.000000  90.000000 120.000000

 COORDINATES IN THE CRYSTALLOGRAPHIC CELL
     ATOM              X/A                 Y/B                 Z/C    
 *******************************************************************************
   1 T   8 O    -3.635806594601E-01 -3.333333333333E-01 -8.333333333333E-02
   2 F   8 O     3.333333333333E-01 -3.024732612675E-02 -8.333333333333E-02
   3 F   8 O     3.024732612675E-02  3.635806594601E-01 -8.333333333333E-02
   4 F   8 O     3.635806594601E-01  3.333333333333E-01  8.333333333333E-02
   5 F   8 O    -3.333333333333E-01  3.024732612675E-02  8.333333333333E-02
   6 F   8 O    -3.024732612675E-02 -3.635806594601E-01  8.333333333333E-02
   7 T  13 AL    3.333333333333E-01 -3.333333333333E-01  1.882696126013E-02
   8 F  13 AL    0.000000000000E+00  2.468403515657E-17  1.478397054065E-01
   9 F  13 AL   -3.333333333333E-01  3.333333333333E-01 -1.882696126013E-02
  10 F  13 AL    0.000000000000E+00  0.000000000000E+00 -1.478397054065E-01

 T = ATOM BELONGING TO THE ASYMMETRIC UNIT

 TOTAL ENERGY(HF)(AU)(   4) -1.4004658554853E+03     DE (AU)   -5.354E-05

 SYMMETRY ALLOWED FORCES  (COORDINATE, FORCE)

    1  6.4027529E-04    2 -6.4667558E-03    3 -8.4519702E-04    4  3.2648329E-04

 GRADIENT NORM     0.006561  GRADIENT THRESHOLD     0.500000

 PREDICTED ENERGY CHANGE    -0.386E-04

 MAX GRADIENT      0.006467  THRESHOLD              0.000450 CONVERGED NO
 RMS GRADIENT      0.003281  THRESHOLD              0.000300 CONVERGED NO
 MAX DISPLAC.      0.011833  THRESHOLD              0.001800 CONVERGED NO
 RMS DISPLAC.      0.006427  THRESHOLD              0.001200 CONVERGED NO
 TTTTTTTTTTTTTTTTTTTTTTTTTTTTTT OPTI        TELAPSE      668.26 TCPU      390.47
 *******************************************************************************
 COORDINATE AND CELL OPTIMIZATION - POINT    6
 *******************************************************************************
 LATTICE PARAMETERS (ANGSTROMS AND DEGREES) - BOHR = 0.5291772083 ANGSTROM
 PRIMITIVE CELL - CENTRING CODE 7/0 VOLUME=    74.232993 - DENSITY 4.561 g/cm^3
         A              B              C           ALPHA      BETA       GAMMA 
     4.88702754     4.88702754     4.88702754    55.666273  55.666273  55.666273
 *******************************************************************************
 ATOMS IN THE ASYMMETRIC UNIT    2 - ATOMS IN THE UNIT CELL:   10
     ATOM              X/A                 Y/B                 Z/C    
 *******************************************************************************
   1 T   8 O    -4.469181355307E-01 -5.308186446931E-02  2.500000000000E-01
   2 F   8 O     2.500000000000E-01 -4.469181355307E-01 -5.308186446931E-02
   3 F   8 O    -5.308186446931E-02  2.500000000000E-01 -4.469181355307E-01
   4 F   8 O     4.469181355307E-01  5.308186446931E-02 -2.500000000000E-01
   5 F   8 O    -2.500000000000E-01  4.469181355307E-01  5.308186446931E-02
   6 F   8 O     5.308186446931E-02 -2.500000000000E-01  4.469181355307E-01
   7 T  13 AL    3.519193335486E-01  3.519193335486E-01  3.519193335486E-01
   8 F  13 AL    1.480806664514E-01  1.480806664514E-01  1.480806664514E-01
   9 F  13 AL   -3.519193335486E-01 -3.519193335486E-01 -3.519193335486E-01
  10 F  13 AL   -1.480806664514E-01 -1.480806664514E-01 -1.480806664514E-01

 TRANSFORMATION MATRIX PRIMITIVE-CRYSTALLOGRAPHIC CELL
  1.0000  0.0000  1.0000 -1.0000  1.0000  1.0000  0.0000 -1.0000  1.0000

 *******************************************************************************
 CRYSTALLOGRAPHIC CELL (VOLUME=        222.69898012)
         A              B              C           ALPHA      BETA       GAMMA 
     4.56348826     4.56348826    12.34791758    90.000000  90.000000 120.000000

 COORDINATES IN THE CRYSTALLOGRAPHIC CELL
     ATOM              X/A                 Y/B                 Z/C    
 *******************************************************************************
   1 T   8 O    -3.635848021974E-01 -3.333333333333E-01 -8.333333333333E-02
   2 F   8 O     3.333333333333E-01 -3.025146886402E-02 -8.333333333333E-02
   3 F   8 O     3.025146886402E-02  3.635848021974E-01 -8.333333333333E-02
   4 F   8 O     3.635848021974E-01  3.333333333333E-01  8.333333333333E-02
   5 F   8 O    -3.333333333333E-01  3.025146886402E-02  8.333333333333E-02
   6 F   8 O    -3.025146886402E-02 -3.635848021974E-01  8.333333333333E-02
   7 T  13 AL    3.333333333333E-01 -3.333333333333E-01  1.858600021527E-02
   8 F  13 AL    0.000000000000E+00  2.468403515657E-17  1.480806664514E-01
   9 F  13 AL   -3.333333333333E-01  3.333333333333E-01 -1.858600021527E-02
  10 F  13 AL    0.000000000000E+00  0.000000000000E+00 -1.480806664514E-01

 T = ATOM BELONGING TO THE ASYMMETRIC UNIT

 TOTAL ENERGY(HF)(AU)(   4) -1.4004659045129E+03     DE (AU)   -4.903E-05

 SYMMETRY ALLOWED FORCES  (COORDINATE, FORCE)

    1  2.2000053E-03    2 -2.2608927E-03    3  1.5456737E-03    4 -4.7831165E-05

 GRADIENT NORM     0.003513  GRADIENT THRESHOLD     0.500000

 PREDICTED ENERGY CHANGE    -0.129E-04

 MAX GRADIENT      0.002261  THRESHOLD              0.000450 CONVERGED NO
 RMS GRADIENT      0.001757  THRESHOLD              0.000300 CONVERGED NO
 MAX DISPLAC.      0.007486  THRESHOLD              0.001800 CONVERGED NO
 RMS DISPLAC.      0.005098  THRESHOLD              0.001200 CONVERGED NO
 TTTTTTTTTTTTTTTTTTTTTTTTTTTTTT OPTI        TELAPSE      810.99 TCPU      468.76
 *******************************************************************************
 COORDINATE AND CELL OPTIMIZATION - POINT    7
 *******************************************************************************
 LATTICE PARAMETERS (ANGSTROMS AND DEGREES) - BOHR = 0.5291772083 ANGSTROM
 PRIMITIVE CELL - CENTRING CODE 7/0 VOLUME=    74.242431 - DENSITY 4.560 g/cm^3
         A              B              C           ALPHA      BETA       GAMMA 
     4.88814910     4.88814910     4.88814910    55.644926  55.644926  55.644926
 *******************************************************************************
 ATOMS IN THE ASYMMETRIC UNIT    2 - ATOMS IN THE UNIT CELL:   10
     ATOM              X/A                 Y/B                 Z/C    
 *******************************************************************************
   1 T   8 O    -4.467546275653E-01 -5.324537243474E-02  2.500000000000E-01
   2 F   8 O     2.500000000000E-01 -4.467546275653E-01 -5.324537243474E-02
   3 F   8 O    -5.324537243474E-02  2.500000000000E-01 -4.467546275653E-01
   4 F   8 O     4.467546275653E-01  5.324537243474E-02 -2.500000000000E-01
   5 F   8 O    -2.500000000000E-01  4.467546275653E-01  5.324537243474E-02
   6 F   8 O     5.324537243474E-02 -2.500000000000E-01  4.467546275653E-01
   7 T  13 AL    3.517668867107E-01  3.517668867107E-01  3.517668867107E-01
   8 F  13 AL    1.482331132893E-01  1.482331132893E-01  1.482331132893E-01
   9 F  13 AL   -3.517668867107E-01 -3.517668867107E-01 -3.517668867107E-01
  10 F  13 AL   -1.482331132893E-01 -1.482331132893E-01 -1.482331132893E-01

 TRANSFORMATION MATRIX PRIMITIVE-CRYSTALLOGRAPHIC CELL
  1.0000  0.0000  1.0000 -1.0000  1.0000  1.0000  0.0000 -1.0000  1.0000

 *******************************************************************************
 CRYSTALLOGRAPHIC CELL (VOLUME=        222.72729178)
         A              B              C           ALPHA      BETA       GAMMA 
     4.56292496     4.56292496    12.35253664    90.000000  90.000000 120.000000

 COORDINATES IN THE CRYSTALLOGRAPHIC CELL
     ATOM              X/A                 Y/B                 Z/C    
 *******************************************************************************
   1 T   8 O    -3.634212942319E-01 -3.333333333333E-01 -8.333333333333E-02
   2 F   8 O     3.333333333333E-01 -3.008796089859E-02 -8.333333333333E-02
   3 F   8 O     3.008796089859E-02  3.634212942319E-01 -8.333333333333E-02
   4 F   8 O     3.634212942319E-01  3.333333333333E-01  8.333333333333E-02
   5 F   8 O    -3.333333333333E-01  3.008796089859E-02  8.333333333333E-02
   6 F   8 O    -3.008796089859E-02 -3.634212942319E-01  8.333333333333E-02
   7 T  13 AL    3.333333333333E-01 -3.333333333333E-01  1.843355337735E-02
   8 F  13 AL    0.000000000000E+00  2.468403515657E-17  1.482331132893E-01
   9 F  13 AL   -3.333333333333E-01  3.333333333333E-01 -1.843355337735E-02
  10 F  13 AL    0.000000000000E+00  0.000000000000E+00 -1.482331132893E-01

 T = ATOM BELONGING TO THE ASYMMETRIC UNIT

 TOTAL ENERGY(HF)(AU)(   4) -1.4004659211327E+03     DE (AU)   -1.662E-05

 SYMMETRY ALLOWED FORCES  (COORDINATE, FORCE)

    1  1.4554668E-03    2 -2.2123024E-04    3  1.1688309E-03    4 -1.3025024E-04

 GRADIENT NORM     0.001884  GRADIENT THRESHOLD     0.500000

 PREDICTED ENERGY CHANGE    -0.350E-05

 MAX GRADIENT      0.001455  THRESHOLD              0.000450 CONVERGED NO
 RMS GRADIENT      0.000942  THRESHOLD              0.000300 CONVERGED NO
 MAX DISPLAC.      0.004152  THRESHOLD              0.001800 CONVERGED NO
 RMS DISPLAC.      0.003018  THRESHOLD              0.001200 CONVERGED NO
 TTTTTTTTTTTTTTTTTTTTTTTTTTTTTT OPTI        TELAPSE      948.81 TCPU      546.31
 *******************************************************************************
 COORDINATE AND CELL OPTIMIZATION - POINT    8
 *******************************************************************************
 LATTICE PARAMETERS (ANGSTROMS AND DEGREES) - BOHR = 0.5291772083 ANGSTROM
 PRIMITIVE CELL - CENTRING CODE 7/0 VOLUME=    74.265718 - DENSITY 4.559 g/cm^3
         A              B              C           ALPHA      BETA       GAMMA 
     4.88930457     4.88930457     4.88930457    55.629895  55.629895  55.629895
 *******************************************************************************
 ATOMS IN THE ASYMMETRIC UNIT    2 - ATOMS IN THE UNIT CELL:   10
     ATOM              X/A                 Y/B                 Z/C    
 *******************************************************************************
   1 T   8 O    -4.466083011002E-01 -5.339169889979E-02  2.500000000000E-01
   2 F   8 O     2.500000000000E-01 -4.466083011002E-01 -5.339169889979E-02
   3 F   8 O    -5.339169889979E-02  2.500000000000E-01 -4.466083011002E-01
   4 F   8 O     4.466083011002E-01  5.339169889979E-02 -2.500000000000E-01
   5 F   8 O    -2.500000000000E-01  4.466083011002E-01  5.339169889979E-02
   6 F   8 O     5.339169889979E-02 -2.500000000000E-01  4.466083011002E-01
   7 T  13 AL    3.517099291454E-01  3.517099291454E-01  3.517099291454E-01
   8 F  13 AL    1.482900708546E-01  1.482900708546E-01  1.482900708546E-01
   9 F  13 AL   -3.517099291454E-01 -3.517099291454E-01 -3.517099291454E-01
  10 F  13 AL   -1.482900708546E-01 -1.482900708546E-01 -1.482900708546E-01

 TRANSFORMATION MATRIX PRIMITIVE-CRYSTALLOGRAPHIC CELL
  1.0000  0.0000  1.0000 -1.0000  1.0000  1.0000  0.0000 -1.0000  1.0000

 *******************************************************************************
 CRYSTALLOGRAPHIC CELL (VOLUME=        222.79715446)
         A              B              C           ALPHA      BETA       GAMMA 
     4.56286916     4.56286916    12.35671347    90.000000  90.000000 120.000000

 COORDINATES IN THE CRYSTALLOGRAPHIC CELL
     ATOM              X/A                 Y/B                 Z/C    
 *******************************************************************************
   1 T   8 O    -3.632749677669E-01 -3.333333333333E-01 -8.333333333333E-02
   2 F   8 O     3.333333333333E-01 -2.994163443355E-02 -8.333333333333E-02
   3 F   8 O     2.994163443355E-02  3.632749677669E-01 -8.333333333333E-02
   4 F   8 O     3.632749677669E-01  3.333333333333E-01  8.333333333333E-02
   5 F   8 O    -3.333333333333E-01  2.994163443355E-02  8.333333333333E-02
   6 F   8 O    -2.994163443355E-02 -3.632749677669E-01  8.333333333333E-02
   7 T  13 AL    3.333333333333E-01 -3.333333333333E-01  1.837659581208E-02
   8 F  13 AL    0.000000000000E+00  2.468403515657E-17  1.482900708546E-01
   9 F  13 AL   -3.333333333333E-01  3.333333333333E-01 -1.837659581208E-02
  10 F  13 AL    0.000000000000E+00  0.000000000000E+00 -1.482900708546E-01

 T = ATOM BELONGING TO THE ASYMMETRIC UNIT

 TOTAL ENERGY(HF)(AU)(   3) -1.4004659250663E+03     DE (AU)   -3.934E-06

 SYMMETRY ALLOWED FORCES  (COORDINATE, FORCE)

    1  2.9287350E-04    2  2.0337610E-04    3  2.4432303E-04    4 -5.8516377E-05

 GRADIENT NORM     0.000436  GRADIENT THRESHOLD     0.500000

 PREDICTED ENERGY CHANGE    -0.145E-06

 MAX GRADIENT      0.000293  THRESHOLD              0.000450 CONVERGED YES
 RMS GRADIENT      0.000218  THRESHOLD              0.000300 CONVERGED YES
 MAX DISPLAC.      0.000685  THRESHOLD              0.001800 CONVERGED YES
 RMS DISPLAC.      0.000461  THRESHOLD              0.001200 CONVERGED YES

 CONVERGENCE TESTS SATISFIED AFTER   8 ENERGY AND GRADIENT CALCULATIONS

 ******************************************************************
 * OPT END - CONVERGED * E(AU):  -1.400465925066E+03  POINTS    8 *
 ******************************************************************

 EIGENVECTORS IN FORTRAN UNIT 10

 NEIGHBORS OF THE NON-EQUIVALENT ATOMS

 N = NUMBER OF NEIGHBORS AT DISTANCE R
    ATOM  N     R/ANG      R/AU   NEIGHBORS (ATOM LABELS AND CELL INDICES)
   1 O    2     1.7844     3.3720   9 AL   0 0 0  10 AL   0 0 0
   1 O    2     1.8697     3.5333   7 AL   0 0 0   8 AL  -1 0 0
   1 O    2     2.3977     4.5311   2 O   -1 1 0   3 O   -1 0 1
   1 O    2     2.4927     4.7106   4 O   -1 0 1   4 O   -1 0 0
   1 O    4     2.6041     4.9210   5 O    0 0 0   5 O    0-1 0   6 O    0 0 0
                                    6 O   -1 0 0
   1 O    4     2.7603     5.2162   2 O    0 0 0   2 O   -1 0 1   3 O    0 0 0
                                    3 O    0-1 1

   7 AL   3     1.7844     3.3720   4 O   -1 0 1   5 O    0 0 0   6 O   -1 1 0
   7 AL   3     1.8697     3.5333   1 O    0 0 0   2 O   -1 1 0   3 O   -1 0 1
   7 AL   1     2.5136     4.7500   8 AL  -1 0 0
   7 AL   3     2.6732     5.0517   9 AL   0 0 0   9 AL  -1 1 0   9 AL   0 1-1
   7 AL   3     3.0823     5.8247   4 O   -1 1 0   5 O   -1 0 1   6 O    0 0 0
   7 AL   3     3.0850     5.8297   8 AL   0 0 0   8 AL  -1 0 1   8 AL  -1 1 0


 FINAL OPTIMIZED GEOMETRY - DIMENSIONALITY OF THE SYSTEM      3
 (NON PERIODIC DIRECTION: LATTICE PARAMETER FORMALLY SET TO 500)
 *******************************************************************************
 LATTICE PARAMETERS (ANGSTROMS AND DEGREES) - BOHR = 0.5291772083 ANGSTROM
 PRIMITIVE CELL - CENTRING CODE 7/0 VOLUME=    74.265718 - DENSITY 4.559 g/cm^3
         A              B              C           ALPHA      BETA       GAMMA 
     4.88930457     4.88930457     4.88930457    55.629895  55.629895  55.629895
 *******************************************************************************
 ATOMS IN THE ASYMMETRIC UNIT    2 - ATOMS IN THE UNIT CELL:   10
     ATOM              X/A                 Y/B                 Z/C    
 *******************************************************************************
   1 T   8 O    -4.466083011002E-01 -5.339169889979E-02  2.500000000000E-01
   2 F   8 O     2.500000000000E-01 -4.466083011002E-01 -5.339169889979E-02
   3 F   8 O    -5.339169889979E-02  2.500000000000E-01 -4.466083011002E-01
   4 F   8 O     4.466083011002E-01  5.339169889979E-02 -2.500000000000E-01
   5 F   8 O    -2.500000000000E-01  4.466083011002E-01  5.339169889979E-02
   6 F   8 O     5.339169889979E-02 -2.500000000000E-01  4.466083011002E-01
   7 T  13 AL    3.517099291454E-01  3.517099291454E-01  3.517099291454E-01
   8 F  13 AL    1.482900708546E-01  1.482900708546E-01  1.482900708546E-01
   9 F  13 AL   -3.517099291454E-01 -3.517099291454E-01 -3.517099291454E-01
  10 F  13 AL   -1.482900708546E-01 -1.482900708546E-01 -1.482900708546E-01

 TRANSFORMATION MATRIX PRIMITIVE-CRYSTALLOGRAPHIC CELL
  1.0000  0.0000  1.0000 -1.0000  1.0000  1.0000  0.0000 -1.0000  1.0000

 *******************************************************************************
 CRYSTALLOGRAPHIC CELL (VOLUME=        222.79715446)
         A              B              C           ALPHA      BETA       GAMMA 
     4.56286916     4.56286916    12.35671347    90.000000  90.000000 120.000000

 COORDINATES IN THE CRYSTALLOGRAPHIC CELL
     ATOM              X/A                 Y/B                 Z/C    
 *******************************************************************************
   1 T   8 O    -3.632749677669E-01 -3.333333333333E-01 -8.333333333333E-02
   2 F   8 O     3.333333333333E-01 -2.994163443355E-02 -8.333333333333E-02
   3 F   8 O     2.994163443355E-02  3.632749677669E-01 -8.333333333333E-02
   4 F   8 O     3.632749677669E-01  3.333333333333E-01  8.333333333333E-02
   5 F   8 O    -3.333333333333E-01  2.994163443355E-02  8.333333333333E-02
   6 F   8 O    -2.994163443355E-02 -3.632749677669E-01  8.333333333333E-02
   7 T  13 AL    3.333333333333E-01 -3.333333333333E-01  1.837659581208E-02
   8 F  13 AL    0.000000000000E+00  2.468403515657E-17  1.482900708546E-01
   9 F  13 AL   -3.333333333333E-01  3.333333333333E-01 -1.837659581208E-02
  10 F  13 AL    0.000000000000E+00  0.000000000000E+00 -1.482900708546E-01

 T = ATOM BELONGING TO THE ASYMMETRIC UNIT
 INFORMATION **** fort.34 **** GEOMETRY OUTPUT FILE

 DIRECT LATTICE VECTORS CARTESIAN COMPONENTS (ANGSTROM)
          X                    Y                    Z
   0.263437373993E+01   0.000000000000E+00   0.411890448937E+01
  -0.131718686996E+01   0.228143458184E+01   0.411890448937E+01
  -0.131718686996E+01  -0.228143458184E+01   0.411890448937E+01


 CARTESIAN COORDINATES - PRIMITIVE CELL
 *******************************************************************************
 *      ATOM          X(ANGSTROM)         Y(ANGSTROM)         Z(ANGSTROM)
 *******************************************************************************
   1     8 O    -1.435503053186E+00 -6.921683137125E-01 -1.029726122342E+00
   2     8 O     1.317186869963E+00 -8.970979544128E-01 -1.029726122342E+00
   3     8 O     1.183161832233E-01  1.589266268125E+00 -1.029726122342E+00
   4     8 O     1.435503053186E+00  6.921683137125E-01  1.029726122342E+00
   5     8 O    -1.317186869963E+00  8.970979544128E-01  1.029726122342E+00
   6     8 O    -1.183161832233E-01 -1.589266268125E+00  1.029726122342E+00
   7    13 AL   -2.634373739925E+00  0.000000000000E+00  2.270743289690E-01
   8    13 AL    0.000000000000E+00  1.126300228510E-16  1.832377915715E+00
   9    13 AL   -1.317186869963E+00 -2.281434581838E+00 -2.270743289690E-01
  10    13 AL    0.000000000000E+00  0.000000000000E+00 -1.832377915715E+00

 ****  12 SYMMOPS - TRANSLATORS IN FRACTIONARY UNITS
  V INV                   ROTATION MATRICES                       TRANSLATOR
  1  1  1.00  0.00  0.00  0.00  1.00  0.00  0.00  0.00  1.00    0.00  0.00  0.00
  2  3  0.00  0.00  1.00  1.00  0.00  0.00  0.00  1.00  0.00    0.00  0.00  0.00
  3  2  0.00  1.00  0.00  0.00  0.00  1.00  1.00  0.00  0.00    0.00  0.00  0.00
  4  4  0.00 -1.00  0.00 -1.00  0.00  0.00  0.00  0.00 -1.00    0.50  0.50  0.50
  5  5 -1.00  0.00  0.00  0.00  0.00 -1.00  0.00 -1.00  0.00    0.50  0.50  0.50
  6  6  0.00  0.00 -1.00  0.00 -1.00  0.00 -1.00  0.00  0.00    0.50  0.50  0.50
  7  7 -1.00  0.00  0.00  0.00 -1.00  0.00  0.00  0.00 -1.00    0.00  0.00  0.00
  8  9  0.00  0.00 -1.00 -1.00  0.00  0.00  0.00 -1.00  0.00    0.00  0.00  0.00
  9  8  0.00 -1.00  0.00  0.00  0.00 -1.00 -1.00  0.00  0.00    0.00  0.00  0.00
 10 10  0.00  1.00  0.00  1.00  0.00  0.00  0.00  0.00  1.00    0.50  0.50  0.50
 11 11  1.00  0.00  0.00  0.00  0.00  1.00  0.00  1.00  0.00    0.50  0.50  0.50
 12 12  0.00  0.00  1.00  0.00  1.00  0.00  1.00  0.00  0.00    0.50  0.50  0.50
 TTTTTTTTTTTTTTTTTTTTTTTTTTTTTT END         TELAPSE     1085.82 TCPU      624.08
 EEEEEEEEEE TERMINATION  DATE 23 02 2010 TIME 12:38:16.1
NODE    0 CPU TIME =       624.079
NODE    1 CPU TIME =       484.546
    TOTAL CPU TIME =      1108.625
Tue Feb 23 12:38:16 GMT 2010
