/home/fmg/bin_local/P_CRYSTAL06/Pcrystal
/home/fmg/bin_local/P_CRYSTAL06_tmp/tmp_p31703
DIAMOND
CRYSTAL
0 0 1       
227       
3.57     
1          
6 .0 .0 .0
OPTGEOM
FULLOPTG
END
END
6 4
0 0 6 2.0 1.0
 3048.0    0.001826
  456.4    0.01406
  103.7    0.06876
   29.23   0.2304
    9.349  0.4685
    3.189  0.3628
0 1 2 4.0 1.0
    3.665 -0.3959 0.2365
    0.7705 1.216  0.8606
0 1 1 0.0 1.0
    0.26   1.0    1.0  
0 3 1 0.0 1.0
    0.8    1.0
99 0 
END
DFT
B3LYP
ENDDFT
SHRINK
6 6
FMIXING
70
LEVSHIFT
16 0
END
Tue Feb 23 03:46:42 EST 2010
 PROCESS            0  OF            8  WORKING
 PROCESS            2  OF            8  WORKING
 PROCESS            6  OF            8  WORKING
 PROCESS            1  OF            8  WORKING
 PROCESS            5  OF            8  WORKING
 PROCESS            4  OF            8  WORKING
 PROCESS            7  OF            8  WORKING
 PROCESS            3  OF            8  WORKING

         
 *******************************************************************************
 *                                                                             *
 *                                CRYSTAL06                                    *
 *                              Release : 1.0                                  *
 *                      V1.0.2 - parallel executable                           *
 *                                                                             *
 *                                                                             *
 *                                                                             *
 *                              MAIN AUTHORS                                   *
 *                                                                             *
 *    R. DOVESI(1,10), V.R. SAUNDERS(2), C. ROETTI(1,10), R. ORLANDO (1,3),    *
 *  C.M. ZICOVICH-WILSON(1,4), F. PASCALE(5), B. CIVALLERI(1,10), K. DOLL(6),  *
 *       N.M. HARRISON(2,7), I. J. BUSH(2), Ph. D'ARCO(8), M. LLUNELL(9)       *
 *                                                                             *
 * (1) THEORETICAL CHEMISTRY GROUP - UNIVERSITA' DI TORINO - TORINO (ITALY)    *
 *      http://www.crystal.unito.it                                            *
 * (2) COMPUTATIONAL SCIENCE & ENGINEERING DEPARTMENT - CCLRC DARESBURY (UK)   *
 *     http://www.cse.clrc.ac.uk/cmg/CRYSTAL/                                  *
 * (3) UNIVERSITA' DEL PIEMONTE ORIENTALE - ALESSANDRIA (ITALY)                *
 * (4) UNIVERSIDAD AUTONOMA DEL ESTADO DE MORELOS - CUERNAVACA (MEXICO)        *
 * (5) UNIVERSITE' HENRI POINCARE' - NANCY (FRANCE)                            *
 * (6) MPI FUER FESTKOERPERFORSCHUNG - STUTTGART (GERMANY)                     *
 * (7) IMPERIAL COLLEGE - LONDON (UK)                                          *
 * (8) UNIVERSITE' PIERRE ET MARIE CURIE - PARIS (FRANCE)                      *
 * (9) UNIVERSIDAD DE BARCELONA - BARCELONA (SPAIN)                            *
 *(10) NIS - NANOSTRUCTURED INTERFACES AND SURFACES - TORINO (ITALY)           *
 *     http://www.crystal.unito.it                                             *
 *******************************************************************************
 EEEEEEEEEE STARTING  DATE 23 02 2010 TIME 03:46:49.5
 DIAMOND                                                                         

 CRYSTAL CALCULATION
 (INPUT ACCORDING TO THE INTERNATIONAL TABLES FOR X-RAY CRYSTALLOGRAPHY)
 CRYSTAL FAMILY                       :  CUBIC       
 CRYSTAL CLASS  (GROTH - 1921)        :  CUBIC HEXAKISOCTAHEDRAL              

 SPACE GROUP (CENTROSYMMETRIC)        :  F D 3 M         

 SHIFT OF THE ORIGIN                  :    7/8    7/8    7/8

 LATTICE PARAMETERS  (ANGSTROMS AND DEGREES) - CONVENTIONAL CELL
        A           B           C        ALPHA        BETA       GAMMA
     3.57000     3.57000     3.57000    90.00000    90.00000    90.00000


 NUMBER OF IRREDUCIBLE ATOMS IN THE CONVENTIONAL CELL:    1

 INPUT COORDINATES

 ATOM AT. N.              COORDINATES
   1   6     0.000000000000E+00  0.000000000000E+00  0.000000000000E+00

 *******************************************************************************

 << INFORMATION >>: FROM NOW ON, ALL COORDINATES REFER TO THE PRIMITIVE CELL

 *******************************************************************************

 LATTICE PARAMETERS  (ANGSTROMS AND DEGREES) - PRIMITIVE CELL
       A          B          C         ALPHA     BETA     GAMMA        VOLUME
    2.52437    2.52437    2.52437    60.00000  60.00000  60.00000     11.374823

 COORDINATES OF THE EQUIVALENT ATOMS (FRACTIONARY UNITS)

 N. ATOM EQUIV AT. N.          X                  Y                  Z

   1   1   1    6 C     0.00000000000E+00  0.00000000000E+00  0.00000000000E+00
   2   1   2    6 C     2.50000000000E-01  2.50000000000E-01  2.50000000000E-01

 NUMBER OF SYMMETRY OPERATORS         :   48
 *******************************************************************************
 * GEOMETRY EDITING - INPUT COORDINATES ARE GIVEN IN ANGSTROM          
 *******************************************************************************

 GEOMETRY NOW FULLY CONSISTENT WITH THE GROUP
 INFORMATION **** FULLOPTG **** full optimization, atoms and cell
 *******************************************************************************
 COMBINED CELL/ATOM OPTIMIZATION CONTROL

 MAXIMUM GRADIENT COMPONENT   0.00045 MAXIMUM DISPLACEMENT COMPONENT     0.00030
 R.M.S. OF GRADIENT COMPONENT 0.00180 R.M.S. OF DISPLACEMENT COMPONENTS  0.00120
 THRESHOLD ON ENERGY CHANGE 0.100E-06 EXTRAPOLATING POLYNOMIAL ORDER           2
 MAXIMUM ALLOWED NUMBER OF STEPS  100 SORTING OF ENERGY POINTS:               NO
 ANALYTICAL  GRADIENT                 HESSIAN UPDATING                      BFGS
 STEP SIZE NUMERICAL GRADIENT 0.00100
 INITIAL HESSIAN MATRIX: SCHLEGEL MODEL 2
 *******************************************************************************


 GCALCO - MAX INDICES DIRECT LATTICE VECTOR  14  14  14
 NO.OF VECTORS CREATED 6999 STARS  105 RMAX    50.48485 BOHR

 GEOMETRY FOR WAVE FUNCTION - DIMENSIONALITY OF THE SYSTEM    3
 (NON PERIODIC DIRECTION: LATTICE PARAMETER FORMALLY SET TO 500)
 *******************************************************************************
 LATTICE PARAMETERS (ANGSTROMS AND DEGREES) - BOHR = 0.5291772083 ANGSTROM
 PRIMITIVE CELL - CENTRING CODE 5/0 VOLUME=    11.374823 - DENSITY 3.504 g/cm^3
         A              B              C           ALPHA      BETA       GAMMA 
     2.52437121     2.52437121     2.52437121    60.000000  60.000000  60.000000
 *******************************************************************************
 ATOMS IN THE ASYMMETRIC UNIT    1 - ATOMS IN THE UNIT CELL:    2
     ATOM              X/A                 Y/B                 Z/C    
 *******************************************************************************
   1 T   6 C     0.000000000000E+00  0.000000000000E+00  0.000000000000E+00
   2 F   6 C     2.500000000000E-01  2.500000000000E-01  2.500000000000E-01

 TRANSFORMATION MATRIX PRIMITIVE-CRYSTALLOGRAPHIC CELL
 -1.0000  1.0000  1.0000  1.0000 -1.0000  1.0000  1.0000  1.0000 -1.0000

 *******************************************************************************
 CRYSTALLOGRAPHIC CELL (VOLUME=         45.49929300)
         A              B              C           ALPHA      BETA       GAMMA 
     3.57000000     3.57000000     3.57000000    90.000000  90.000000  90.000000

 COORDINATES IN THE CRYSTALLOGRAPHIC CELL
     ATOM              X/A                 Y/B                 Z/C    
 *******************************************************************************
   1 T   6 C     0.000000000000E+00  0.000000000000E+00  0.000000000000E+00
   2 F   6 C     2.500000000000E-01 -2.500000000000E-01 -2.500000000000E-01

 T = ATOM BELONGING TO THE ASYMMETRIC UNIT

 ****  48 SYMMOPS - TRANSLATORS IN FRACTIONARY UNITS
  V INV                   ROTATION MATRICES                       TRANSLATOR
  1  1  1.00  0.00  0.00  0.00  1.00  0.00  0.00  0.00  1.00    0.00  0.00  0.00
  2  2  0.00  1.00  0.00  1.00  0.00  0.00 -1.00 -1.00 -1.00    0.00  0.00  0.00
  3  3 -1.00 -1.00 -1.00  0.00  0.00  1.00  0.00  1.00  0.00    0.00  0.00  0.00
  4  4  0.00  0.00  1.00 -1.00 -1.00 -1.00  1.00  0.00  0.00    0.00  0.00  0.00
  5  6  0.00  0.00  1.00  1.00  0.00  0.00  0.00  1.00  0.00    0.00  0.00  0.00
  6  5  0.00  1.00  0.00  0.00  0.00  1.00  1.00  0.00  0.00    0.00  0.00  0.00
  7  8  1.00  0.00  0.00  0.00  0.00  1.00 -1.00 -1.00 -1.00    0.00  0.00  0.00
  8  7  1.00  0.00  0.00 -1.00 -1.00 -1.00  0.00  1.00  0.00    0.00  0.00  0.00
  9 10 -1.00 -1.00 -1.00  0.00  1.00  0.00  1.00  0.00  0.00    0.00  0.00  0.00
 10  9  0.00  0.00  1.00  0.00  1.00  0.00 -1.00 -1.00 -1.00    0.00  0.00  0.00
 11 12  0.00  1.00  0.00 -1.00 -1.00 -1.00  0.00  0.00  1.00    0.00  0.00  0.00
 12 11 -1.00 -1.00 -1.00  1.00  0.00  0.00  0.00  0.00  1.00    0.00  0.00  0.00
 13 13  0.00 -1.00  0.00 -1.00  0.00  0.00  0.00  0.00 -1.00    0.25  0.25  0.25
 14 14 -1.00  0.00  0.00  0.00 -1.00  0.00  1.00  1.00  1.00    0.25  0.25  0.25
 15 16  0.00  0.00 -1.00  1.00  1.00  1.00  0.00 -1.00  0.00    0.25  0.25  0.25
 16 15  1.00  1.00  1.00  0.00  0.00 -1.00 -1.00  0.00  0.00    0.25  0.25  0.25
 17 17 -1.00  0.00  0.00  0.00  0.00 -1.00  0.00 -1.00  0.00    0.25  0.25  0.25
 18 18  0.00  0.00 -1.00  0.00 -1.00  0.00 -1.00  0.00  0.00    0.25  0.25  0.25
 19 21  0.00  0.00 -1.00 -1.00  0.00  0.00  1.00  1.00  1.00    0.25  0.25  0.25
 20 22  1.00  1.00  1.00 -1.00  0.00  0.00  0.00 -1.00  0.00    0.25  0.25  0.25
 21 19  0.00 -1.00  0.00  1.00  1.00  1.00 -1.00  0.00  0.00    0.25  0.25  0.25
 22 20  0.00 -1.00  0.00  0.00  0.00 -1.00  1.00  1.00  1.00    0.25  0.25  0.25
 23 23  1.00  1.00  1.00  0.00 -1.00  0.00  0.00  0.00 -1.00    0.25  0.25  0.25
 24 24 -1.00  0.00  0.00  1.00  1.00  1.00  0.00  0.00 -1.00    0.25  0.25  0.25
 25 25 -1.00  0.00  0.00  0.00 -1.00  0.00  0.00  0.00 -1.00    0.25  0.25  0.25
 26 26  0.00 -1.00  0.00 -1.00  0.00  0.00  1.00  1.00  1.00    0.25  0.25  0.25
 27 27  1.00  1.00  1.00  0.00  0.00 -1.00  0.00 -1.00  0.00    0.25  0.25  0.25
 28 28  0.00  0.00 -1.00  1.00  1.00  1.00 -1.00  0.00  0.00    0.25  0.25  0.25
 29 30  0.00  0.00 -1.00 -1.00  0.00  0.00  0.00 -1.00  0.00    0.25  0.25  0.25
 30 29  0.00 -1.00  0.00  0.00  0.00 -1.00 -1.00  0.00  0.00    0.25  0.25  0.25
 31 32 -1.00  0.00  0.00  0.00  0.00 -1.00  1.00  1.00  1.00    0.25  0.25  0.25
 32 31 -1.00  0.00  0.00  1.00  1.00  1.00  0.00 -1.00  0.00    0.25  0.25  0.25
 33 34  1.00  1.00  1.00  0.00 -1.00  0.00 -1.00  0.00  0.00    0.25  0.25  0.25
 34 33  0.00  0.00 -1.00  0.00 -1.00  0.00  1.00  1.00  1.00    0.25  0.25  0.25
 35 36  0.00 -1.00  0.00  1.00  1.00  1.00  0.00  0.00 -1.00    0.25  0.25  0.25
 36 35  1.00  1.00  1.00 -1.00  0.00  0.00  0.00  0.00 -1.00    0.25  0.25  0.25
 37 37  0.00  1.00  0.00  1.00  0.00  0.00  0.00  0.00  1.00    0.00  0.00  0.00
 38 38  1.00  0.00  0.00  0.00  1.00  0.00 -1.00 -1.00 -1.00    0.00  0.00  0.00
 39 40  0.00  0.00  1.00 -1.00 -1.00 -1.00  0.00  1.00  0.00    0.00  0.00  0.00
 40 39 -1.00 -1.00 -1.00  0.00  0.00  1.00  1.00  0.00  0.00    0.00  0.00  0.00
 41 41  1.00  0.00  0.00  0.00  0.00  1.00  0.00  1.00  0.00    0.00  0.00  0.00
 42 42  0.00  0.00  1.00  0.00  1.00  0.00  1.00  0.00  0.00    0.00  0.00  0.00
 43 45  0.00  0.00  1.00  1.00  0.00  0.00 -1.00 -1.00 -1.00    0.00  0.00  0.00
 44 46 -1.00 -1.00 -1.00  1.00  0.00  0.00  0.00  1.00  0.00    0.00  0.00  0.00
 45 43  0.00  1.00  0.00 -1.00 -1.00 -1.00  1.00  0.00  0.00    0.00  0.00  0.00
 46 44  0.00  1.00  0.00  0.00  0.00  1.00 -1.00 -1.00 -1.00    0.00  0.00  0.00
 47 47 -1.00 -1.00 -1.00  0.00  1.00  0.00  0.00  0.00  1.00    0.00  0.00  0.00
 48 48  1.00  0.00  0.00 -1.00 -1.00 -1.00  0.00  0.00  1.00    0.00  0.00  0.00

 DIRECT LATTICE VECTORS CARTESIAN COMPONENTS (ANGSTROM)
          X                    Y                    Z
   0.000000000000E+00   0.178500000000E+01   0.178500000000E+01
   0.178500000000E+01   0.000000000000E+00   0.178500000000E+01
   0.178500000000E+01   0.178500000000E+01   0.000000000000E+00


 CARTESIAN COORDINATES - PRIMITIVE CELL
 *******************************************************************************
 *      ATOM          X(ANGSTROM)         Y(ANGSTROM)         Z(ANGSTROM)
 *******************************************************************************
   1     6 C     0.000000000000E+00  0.000000000000E+00  0.000000000000E+00
   2     6 C     8.925000000000E-01 -8.925000000000E-01 -8.925000000000E-01

 *******************************************************************************
 LOCAL ATOMIC FUNCTIONS BASIS SET
 *******************************************************************************
   ATOM  X(AU)  Y(AU)  Z(AU)    NO. TYPE  EXPONENT  S COEF   P COEF   D/F/G COEF
 *******************************************************************************
   1 C   0.000  0.000  0.000
                                  1 S  
                                         3.048E+03 1.826E-03 0.000E+00 0.000E+00
                                         4.564E+02 1.406E-02 0.000E+00 0.000E+00
                                         1.037E+02 6.876E-02 0.000E+00 0.000E+00
                                         2.923E+01 2.304E-01 0.000E+00 0.000E+00
                                         9.349E+00 4.685E-01 0.000E+00 0.000E+00
                                         3.189E+00 3.628E-01 0.000E+00 0.000E+00
                             2-   5 SP 
                                         3.665E+00-3.959E-01 2.365E-01 0.000E+00
                                         7.705E-01 1.216E+00 8.606E-01 0.000E+00
                             6-   9 SP 
                                         2.600E-01 1.000E+00 1.000E+00 0.000E+00
                            10-  14 D  
                                         8.000E-01 0.000E+00 0.000E+00 1.000E+00
   2 C   1.687 -1.687 -1.687
 *******************************************************************************
 N. OF ATOMS PER CELL        2  COULOMB OVERLAP TOL         (T1) 10** -6
 NUMBER OF SHELLS            8  COULOMB PENETRATION TOL     (T2) 10** -6
 NUMBER OF AO               28  EXCHANGE OVERLAP TOL        (T3) 10** -6
 N. OF ELECTRONS PER CELL   12  EXCHANGE PSEUDO OVP (F(G))  (T4) 10** -6
 CORE ELECTRONS PER CELL     4  EXCHANGE PSEUDO OVP (P(G))  (T5) 10**-12
 N. OF SYMMETRY OPERATORS   48  POLE ORDER IN MONO ZONE                4
 *******************************************************************************
 TYPE OF CALCULATION :  RESTRICTED CLOSED SHELL
 KOHN-SHAM HAMILTONIAN

 (EXCHANGE)[CORRELATION] FUNCTIONAL:(BECKE)[LEE-YANG-PARR]

 NON-LOCAL WEIGHTING FACTOR (EXCHANGE) =           0.9000
 NON-LOCAL WEIGHTING FACTOR [CORRELATION] =        0.8100

 HYBRID EXCHANGE - PERCENTAGE OF FOCK EXCHANGE    20.0000
 EIGENVALUE LEVEL SHIFTING OF  1.600 HARTREE

 CAPPA: IS1=  6 IS2=  6 IS3=  6K POINTS MONKHORST NET   16 SYMMOPS K SPACE 48 SYMMOPS G SPACE 48


 CAPPA1: ISJ1=  6 ISJ2=  6 ISJ3=  6K POINTS GILAT NET   16 SYMMOPS K SPACE 48 SYMMOPS G SPACE 48

 *******************************************************************************
 MAX NUMBER OF SCF CYCLES      50  CONVERGENCE ON DELTAP        10**-16
 WEIGHT OF F(I) IN F(I+1)      70% CONVERGENCE ON ENERGY        10**- 7
 EIGENVALUE LEVEL SHIFTING OF  1.600 HARTREE
 SHRINK. FACT.(MONKH.)    6  6  6  NUMBER OF K POINTS IN THE IBZ     16
 SHRINKING FACTOR(GILAT NET)    6  NUMBER OF K POINTS(GILAT NET)     16
 *******************************************************************************
 *** K POINTS COORDINATES (OBLIQUE COORDINATES IN UNITS OF IS =  6)
   1-R(  0  0  0)   2-C(  1  0  0)   3-C(  2  0  0)   4-R(  3  0  0)
   5-C(  1  1  0)   6-C(  2  1  0)   7-C(  3  1  0)   8-C(  4  1  0)
   9-C(  5  1  0)  10-C(  2  2  0)  11-C(  3  2  0)  12-C(  4  2  0)
  13-R(  3  3  0)  14-C(  3  2  1)  15-C(  4  2  1)  16-C(  4  3  1)

 DIRECT LATTICE VECTORS COMPON. (A.U.)     RECIP. LATTICE VECTORS COMPON. (A.U.) 
        X            Y            Z              X            Y            Z
    0.0000000    3.3731611    3.3731611     -0.9313497    0.9313497    0.9313497
    3.3731611    0.0000000    3.3731611      0.9313497   -0.9313497    0.9313497
    3.3731611    3.3731611    0.0000000      0.9313497    0.9313497   -0.9313497

 DISK SPACE FOR EIGENVECTORS (FTN 10)      22736 REALS

 SYMMETRY ADAPTION OF THE BLOCH FUNCTIONS ENABLED
 TTTTTTTTTTTTTTTTTTTTTTTTTTTTTT gordsh1     TELAPSE        4.94 TCPU        0.00

 DIMENSIONS  P(G)=   49100 F(G)=   10142 P(G),F(G) (IRR)    1582
 MAX G-VECTOR INDEX FOR 1- AND 2-ELECTRON INTEGRALS 231

 INFORMATION **** GENBUF **** COULOMB BIPO BUFFER LENGTH (WORDS) =    246550
 TTTTTTTTTTTTTTTTTTTTTTTTTTTTTT INPUT       TELAPSE        5.10 TCPU        0.00

 NEIGHBORS OF THE NON-EQUIVALENT ATOMS

 N = NUMBER OF NEIGHBORS AT DISTANCE R
    ATOM  N     R/ANG      R/AU   NEIGHBORS (ATOM LABELS AND CELL INDICES)
   1 C    4     1.5459     2.9212   2 C    0 0 0   2 C    1 0 0   2 C    1 0-1
                                    2 C    1-1 0
   1 C   12     2.5244     4.7704   1 C   -1 0 0   1 C    1 0 0   1 C   -1 0 1
                                    1 C    1 0-1   1 C   -1 1 0   1 C    1-1 0
                                    1 C    0-1 0   1 C    0 1 0   1 C    0-1 1
                                    1 C    0 1-1   1 C    0 0-1   1 C    0 0 1
   1 C   12     2.9601     5.5938   2 C    0 1 0   2 C    0-1 0   2 C    0 1-1
                                    2 C    0-1 1   2 C    0 0 1   2 C    0 0-1
                                    2 C    1 1-1   2 C    1-1 1   2 C    1-1-1
                                    2 C    2 0-1   2 C    2-1 0   2 C    2-1-1
   1 C    6     3.5700     6.7463   1 C   -1-1 1   1 C    1 1-1   1 C   -1 1-1
                                    1 C    1-1 1   1 C   -1 1 1   1 C    1-1-1
   1 C   12     3.8903     7.3516   2 C   -1 0 0   2 C   -1 0 1   2 C   -1 1 0
                                    2 C    1 1 0   2 C    1 1-2   2 C    1 0 1
                                    2 C    1 0-2   2 C    1-2 1   2 C    1-2 0
                                    2 C    2 0 0   2 C    2 0-2   2 C    2-2 0
   1 C   24     4.3723     8.2625   1 C   -2 0 1   1 C    2 0-1   1 C   -2 1 0
                                    1 C    2-1 0   1 C   -2 1 1   1 C    2-1-1
                                    1 C   -1-1 0   1 C    1 1 0   1 C   -1-1 2
                                    1 C    1 1-2   1 C   -1 0-1   1 C    1 0 1
                                    1 C   -1 0 2   1 C    1 0-2   1 C   -1 2-1
                                    1 C    1-2 1   1 C   -1 2 0   1 C    1-2 0
                                    1 C    0-2 1   1 C    0 2-1   1 C    0-1-1
                                    1 C    0 1 1   1 C    0-1 2   1 C    0 1-2


 SYMMETRY ALLOWED ELASTIC DISTORTION 1
  0.5773503  0.0000000  0.0000000
  0.0000000  0.5773503  0.0000000
  0.0000000  0.0000000  0.5773503

 THERE ARE NO SYMMETRY ALLOWED DIRECTIONS
 WARNING **** INT_SCREEN **** CELL PARAMETERS OPTIMIZATION ONLY
 TTTTTTTTTTTTTTTTTTTTTTTTTTTTTT SYMM        TELAPSE        5.10 TCPU        0.01
 TTTTTTTTTTTTTTTTTTTTTTTTTTTTTT INT_SCREEN  TELAPSE        5.10 TCPU        0.01
 *******************************************************************************
 CELL OPTIMIZATION - POINT    1
 INFORMATION **** GENBUF **** COULOMB BIPO BUFFER LENGTH (WORDS) =    246550
 INFORMATION **** EXCBUF **** EXCH. BIPO BUFFER: WORDS USED =    260424
 TTTTTTTTTTTTTTTTTTTTTTTTTTTTTT MONIRR      TELAPSE        5.20 TCPU        0.04

 DFT PARAMETERS

     ATOM       ELECTRONS   NET CHARGE   R(ANGSTROM)
   1   6  C       6.0000      0.0000     0.77000000

 SIZE OF GRID=        469
 TTTTTTTTTTTTTTTTTTTTTTTTTTTTTT MAKEGRID    TELAPSE        5.38 TCPU        0.04
 BECKE WEIGHT FUNCTION
 RADSAFE =     2.00
 TOLERANCES - DENSITY:10**- 6; POTENTIAL:10**- 9; GRID WGT:10**-14

 RADIAL INTEGRATION  - INTERVALS (POINTS,UPPER LIMIT):            1( 55,  4.0*R)

 ANGULAR INTEGRATION - INTERVALS (ACCURACY LEVEL [N. POINTS] UPPER LIMIT):
  1(  1[  38]   0.4)  2(  2[  50]   0.6)  3(  5[ 110]   0.8)  4(  8[ 194]   0.9)
  5( 11[ 302]   1.1)  6( 13[ 434]   2.3)  7( 11[ 302]   2.4)  8(  8[ 194]   2.6)
  9(  5[ 110]   2.8) 10(  1[  38]9999.0)

  GAUSS70 FOR COULOMB   GAUSS70 FOR EXCHANGE
 **SHELL_ORTHODOX** SPACE FOR BIEL. INTEGRALS     1 BUFFERS
 TTTTTTTTTTTTTTTTTTTTTTTTTTTTTT SHLC        TELAPSE        6.26 TCPU        0.77
 TTTTTTTTTTTTTTTTTTTTTTTTTTTTTT MONMAD      TELAPSE        6.33 TCPU        0.85
 TTTTTTTTTTTTTTTTTTTTTTTTTTTTTT INT_CALC    TELAPSE        6.33 TCPU        0.85

 *******************************************************************************
 DIAMOND                                                                         
 CRYSTAL - SCF - TYPE OF CALCULATION :  RESTRICTED CLOSED SHELL
 *******************************************************************************

 CAPPA: IS1=  6 IS2=  6 IS3=  6K POINTS MONKHORST NET   16 SYMMOPS K SPACE 48 SYMMOPS G SPACE 48


 CAPPA1: ISJ1=  6 ISJ2=  6 ISJ3=  6K POINTS GILAT NET   16 SYMMOPS K SPACE 48 SYMMOPS G SPACE 48

 TTTTTTTTTTTTTTTTTTTTTTTTTTTTTT SDIK        TELAPSE        7.43 TCPU        0.85

 AAAAAAAAAAAAAAAAAAAAAAAAAAAAAAAAAAAAAAAAAAAAAAAAAAAAAAAAAAAAAAAAAAAAAAAAAAAAAAA
         ATOMIC WAVEFUNCTION(S)


 NUCLEAR CHARGE  6.0  SYMMETRY SPECIES            S    P
 N. ELECTRONS    6.0  NUMBER OF PRIMITIVE GTOS    9    3
                      NUMBER OF CONTRACTED GTOS   3    2
                      NUMBER OF CLOSED SHELLS     2    0
                      OPEN SHELL OCCUPATION       0    2

  ZNUC SCFIT  TOTAL HF ENERGY   KINETIC ENERGY   VIRIAL THEOREM ACCURACY
   6.0   8   -3.761838750E+01  3.811478523E+01 -1.986976242E+00  2.1E-06

 AAAAAAAAAAAAAAAAAAAAAAAAAAAAAAAAAAAAAAAAAAAAAAAAAAAAAAAAAAAAAAAAAAAAAAAAAAAAAAA

 CHARGE NORMALIZATION FACTOR   1.00000000
 TOTAL ATOMIC CHARGES:
   6.0000000   6.0000000
 TTTTTTTTTTTTTTTTTTTTTTTTTTTTTT QGAM        TELAPSE        7.43 TCPU        0.85
 TTTTTTTTTTTTTTTTTTTTTTTTTTTTTT BIEL        TELAPSE        7.43 TCPU        0.86
 TTTTTTTTTTTTTTTTTTTTTTTTTTTTTT TOTENY      TELAPSE        7.48 TCPU        0.86
 NUMERICALLY INTEGRATED DENSITY     12.0026260872
 TTTTTTTTTTTTTTTTTTTTTTTTTTTTTT NUMDFT      TELAPSE        7.65 TCPU        0.97
 CYC   0 ETOT(AU) -7.650751375361E+01 DETOT -7.65E+01 tst  0.00E+00 PX  1.00E+00
 TTTTTTTTTTTTTTTTTTTTTTTTTTTTTT FDIK        TELAPSE        7.65 TCPU        0.98
 INSULATING STATE - TOP OF VALENCE BANDS (A.U.) -1.2187385E-01
 TTTTTTTTTTTTTTTTTTTTTTTTTTTTTT PDIG        TELAPSE        7.72 TCPU        0.98
 CHARGE NORMALIZATION FACTOR   1.00000000
 TOTAL ATOMIC CHARGES:
   6.0000000   6.0000000
 TTTTTTTTTTTTTTTTTTTTTTTTTTTTTT QGAM        TELAPSE        7.72 TCPU        0.98
 TTTTTTTTTTTTTTTTTTTTTTTTTTTTTT BIEL        TELAPSE        7.72 TCPU        0.98
 TTTTTTTTTTTTTTTTTTTTTTTTTTTTTT TOTENY      TELAPSE        7.78 TCPU        0.98
 NUMERICALLY INTEGRATED DENSITY     12.0017131740
 TTTTTTTTTTTTTTTTTTTTTTTTTTTTTT NUMDFT      TELAPSE        8.12 TCPU        1.15
 CYC   1 ETOT(AU) -7.612592278331E+01 DETOT  3.82E-01 tst  0.00E+00 PX  1.00E+00
 TTTTTTTTTTTTTTTTTTTTTTTTTTTTTT FDIK        TELAPSE        8.13 TCPU        1.15
 INSULATING STATE - TOP OF VALENCE BANDS (A.U.) -1.0489919E-01
 TTTTTTTTTTTTTTTTTTTTTTTTTTTTTT PDIG        TELAPSE        8.35 TCPU        1.16
 CHARGE NORMALIZATION FACTOR   1.00000000
 TOTAL ATOMIC CHARGES:
   6.0000000   6.0000000
 TTTTTTTTTTTTTTTTTTTTTTTTTTTTTT QGAM        TELAPSE        8.46 TCPU        1.16
 TTTTTTTTTTTTTTTTTTTTTTTTTTTTTT BIEL        TELAPSE        8.47 TCPU        1.16
 TTTTTTTTTTTTTTTTTTTTTTTTTTTTTT TOTENY      TELAPSE        8.48 TCPU        1.16
 NUMERICALLY INTEGRATED DENSITY     12.0017293894
 TTTTTTTTTTTTTTTTTTTTTTTTTTTTTT NUMDFT      TELAPSE        8.96 TCPU        1.35
 CYC   2 ETOT(AU) -7.612669687929E+01 DETOT -7.74E-04 tst  3.76E-05 PX  3.70E-03
 TTTTTTTTTTTTTTTTTTTTTTTTTTTTTT FDIK        TELAPSE        8.97 TCPU        1.35
 INSULATING STATE - TOP OF VALENCE BANDS (A.U.) -9.3942486E-02
 TTTTTTTTTTTTTTTTTTTTTTTTTTTTTT PDIG        TELAPSE        9.10 TCPU        1.35
 CHARGE NORMALIZATION FACTOR   1.00000000
 TOTAL ATOMIC CHARGES:
   6.0000000   6.0000000
 TTTTTTTTTTTTTTTTTTTTTTTTTTTTTT QGAM        TELAPSE        9.10 TCPU        1.35
 TTTTTTTTTTTTTTTTTTTTTTTTTTTTTT BIEL        TELAPSE        9.10 TCPU        1.36
 TTTTTTTTTTTTTTTTTTTTTTTTTTTTTT TOTENY      TELAPSE        9.11 TCPU        1.36
 NUMERICALLY INTEGRATED DENSITY     12.0017485865
 TTTTTTTTTTTTTTTTTTTTTTTTTTTTTT NUMDFT      TELAPSE        9.49 TCPU        1.61
 CYC   3 ETOT(AU) -7.612740846464E+01 DETOT -7.12E-04 tst  7.06E-05 PX  4.28E-03
 TTTTTTTTTTTTTTTTTTTTTTTTTTTTTT FDIK        TELAPSE        9.50 TCPU        1.61
 INSULATING STATE - TOP OF VALENCE BANDS (A.U.) -8.7355845E-02
 TTTTTTTTTTTTTTTTTTTTTTTTTTTTTT PDIG        TELAPSE        9.57 TCPU        1.61
 CHARGE NORMALIZATION FACTOR   1.00000000
 TOTAL ATOMIC CHARGES:
   6.0000000   6.0000000
 TTTTTTTTTTTTTTTTTTTTTTTTTTTTTT QGAM        TELAPSE        9.57 TCPU        1.61
 TTTTTTTTTTTTTTTTTTTTTTTTTTTTTT BIEL        TELAPSE        9.57 TCPU        1.62
 TTTTTTTTTTTTTTTTTTTTTTTTTTTTTT TOTENY      TELAPSE        9.66 TCPU        1.62
 NUMERICALLY INTEGRATED DENSITY     12.0017656367
 TTTTTTTTTTTTTTTTTTTTTTTTTTTTTT NUMDFT      TELAPSE        9.87 TCPU        1.71
 CYC   4 ETOT(AU) -7.612788811434E+01 DETOT -4.80E-04 tst  7.46E-05 PX  3.79E-03
 TTTTTTTTTTTTTTTTTTTTTTTTTTTTTT FDIK        TELAPSE       10.07 TCPU        1.71
 INSULATING STATE - TOP OF VALENCE BANDS (A.U.) -8.3706192E-02
 TTTTTTTTTTTTTTTTTTTTTTTTTTTTTT PDIG        TELAPSE       10.16 TCPU        1.74
 CHARGE NORMALIZATION FACTOR   1.00000000
 TOTAL ATOMIC CHARGES:
   6.0000000   6.0000000
 TTTTTTTTTTTTTTTTTTTTTTTTTTTTTT QGAM        TELAPSE       10.21 TCPU        1.74
 TTTTTTTTTTTTTTTTTTTTTTTTTTTTTT BIEL        TELAPSE       10.21 TCPU        1.75
 TTTTTTTTTTTTTTTTTTTTTTTTTTTTTT TOTENY      TELAPSE       10.35 TCPU        1.75
 NUMERICALLY INTEGRATED DENSITY     12.0017790771
 TTTTTTTTTTTTTTTTTTTTTTTTTTTTTT NUMDFT      TELAPSE       10.81 TCPU        1.89
 CYC   5 ETOT(AU) -7.612817772558E+01 DETOT -2.90E-04 tst  6.24E-05 PX  4.00E-03
 TTTTTTTTTTTTTTTTTTTTTTTTTTTTTT FDIK        TELAPSE       10.96 TCPU        1.89
 INSULATING STATE - TOP OF VALENCE BANDS (A.U.) -8.1918560E-02
 TTTTTTTTTTTTTTTTTTTTTTTTTTTTTT PDIG        TELAPSE       11.07 TCPU        1.89
 CHARGE NORMALIZATION FACTOR   1.00000000
 TOTAL ATOMIC CHARGES:
   6.0000000   6.0000000
 TTTTTTTTTTTTTTTTTTTTTTTTTTTTTT QGAM        TELAPSE       11.17 TCPU        1.89
 TTTTTTTTTTTTTTTTTTTTTTTTTTTTTT BIEL        TELAPSE       11.18 TCPU        1.89
 TTTTTTTTTTTTTTTTTTTTTTTTTTTTTT TOTENY      TELAPSE       11.18 TCPU        1.89
 NUMERICALLY INTEGRATED DENSITY     12.0017890069
 TTTTTTTTTTTTTTTTTTTTTTTTTTTTTT NUMDFT      TELAPSE       11.52 TCPU        2.16
 CYC   6 ETOT(AU) -7.612834517566E+01 DETOT -1.67E-04 tst  4.72E-05 PX  3.88E-03
 TTTTTTTTTTTTTTTTTTTTTTTTTTTTTT FDIK        TELAPSE       11.52 TCPU        2.16
 INSULATING STATE - TOP OF VALENCE BANDS (A.U.) -8.1245996E-02
 TTTTTTTTTTTTTTTTTTTTTTTTTTTTTT PDIG        TELAPSE       11.58 TCPU        2.18
 CHARGE NORMALIZATION FACTOR   1.00000000
 TOTAL ATOMIC CHARGES:
   6.0000000   6.0000000
 TTTTTTTTTTTTTTTTTTTTTTTTTTTTTT QGAM        TELAPSE       11.59 TCPU        2.18
 TTTTTTTTTTTTTTTTTTTTTTTTTTTTTT BIEL        TELAPSE       11.59 TCPU        2.18
 TTTTTTTTTTTTTTTTTTTTTTTTTTTTTT TOTENY      TELAPSE       11.65 TCPU        2.18
 NUMERICALLY INTEGRATED DENSITY     12.0017960318
 TTTTTTTTTTTTTTTTTTTTTTTTTTTTTT NUMDFT      TELAPSE       12.17 TCPU        2.44
 CYC   7 ETOT(AU) -7.612844075753E+01 DETOT -9.56E-05 tst  3.33E-05 PX  3.44E-03
 TTTTTTTTTTTTTTTTTTTTTTTTTTTTTT FDIK        TELAPSE       12.18 TCPU        2.44
 INSULATING STATE - TOP OF VALENCE BANDS (A.U.) -8.1198259E-02
 TTTTTTTTTTTTTTTTTTTTTTTTTTTTTT PDIG        TELAPSE       12.26 TCPU        2.45
 CHARGE NORMALIZATION FACTOR   1.00000000
 TOTAL ATOMIC CHARGES:
   6.0000000   6.0000000
 TTTTTTTTTTTTTTTTTTTTTTTTTTTTTT QGAM        TELAPSE       12.26 TCPU        2.45
 TTTTTTTTTTTTTTTTTTTTTTTTTTTTTT BIEL        TELAPSE       12.27 TCPU        2.45
 TTTTTTTTTTTTTTTTTTTTTTTTTTTTTT TOTENY      TELAPSE       12.27 TCPU        2.45
 NUMERICALLY INTEGRATED DENSITY     12.0018008502
 TTTTTTTTTTTTTTTTTTTTTTTTTTTTTT NUMDFT      TELAPSE       12.74 TCPU        2.72
 CYC   8 ETOT(AU) -7.612849544608E+01 DETOT -5.47E-05 tst  2.23E-05 PX  2.90E-03
 TTTTTTTTTTTTTTTTTTTTTTTTTTTTTT FDIK        TELAPSE       12.74 TCPU        2.72
 INSULATING STATE - TOP OF VALENCE BANDS (A.U.) -8.1468106E-02
 TTTTTTTTTTTTTTTTTTTTTTTTTTTTTT PDIG        TELAPSE       12.89 TCPU        2.72
 CHARGE NORMALIZATION FACTOR   1.00000000
 TOTAL ATOMIC CHARGES:
   6.0000000   6.0000000
 TTTTTTTTTTTTTTTTTTTTTTTTTTTTTT QGAM        TELAPSE       12.93 TCPU        2.72
 TTTTTTTTTTTTTTTTTTTTTTTTTTTTTT BIEL        TELAPSE       12.93 TCPU        2.73
 TTTTTTTTTTTTTTTTTTTTTTTTTTTTTT TOTENY      TELAPSE       12.97 TCPU        2.73
 NUMERICALLY INTEGRATED DENSITY     12.0018040797
 TTTTTTTTTTTTTTTTTTTTTTTTTTTTTT NUMDFT      TELAPSE       13.38 TCPU        2.99
 CYC   9 ETOT(AU) -7.612852701086E+01 DETOT -3.16E-05 tst  1.45E-05 PX  2.38E-03
 TTTTTTTTTTTTTTTTTTTTTTTTTTTTTT FDIK        TELAPSE       13.39 TCPU        2.99
 INSULATING STATE - TOP OF VALENCE BANDS (A.U.) -8.1871535E-02
 TTTTTTTTTTTTTTTTTTTTTTTTTTTTTT PDIG        TELAPSE       13.61 TCPU        3.00
 CHARGE NORMALIZATION FACTOR   1.00000000
 TOTAL ATOMIC CHARGES:
   6.0000000   6.0000000
 TTTTTTTTTTTTTTTTTTTTTTTTTTTTTT QGAM        TELAPSE       13.67 TCPU        3.00
 TTTTTTTTTTTTTTTTTTTTTTTTTTTTTT BIEL        TELAPSE       13.67 TCPU        3.00
 TTTTTTTTTTTTTTTTTTTTTTTTTTTTTT TOTENY      TELAPSE       13.69 TCPU        3.00
 NUMERICALLY INTEGRATED DENSITY     12.0018062040
 TTTTTTTTTTTTTTTTTTTTTTTTTTTTTT NUMDFT      TELAPSE       14.04 TCPU        3.26
 CYC  10 ETOT(AU) -7.612854540387E+01 DETOT -1.84E-05 tst  9.36E-06 PX  1.92E-03
 TTTTTTTTTTTTTTTTTTTTTTTTTTTTTT FDIK        TELAPSE       14.05 TCPU        3.26
 INSULATING STATE - TOP OF VALENCE BANDS (A.U.) -8.2305588E-02
 TTTTTTTTTTTTTTTTTTTTTTTTTTTTTT PDIG        TELAPSE       14.31 TCPU        3.26
 CHARGE NORMALIZATION FACTOR   1.00000000
 TOTAL ATOMIC CHARGES:
   6.0000000   6.0000000
 TTTTTTTTTTTTTTTTTTTTTTTTTTTTTT QGAM        TELAPSE       14.42 TCPU        3.26
 TTTTTTTTTTTTTTTTTTTTTTTTTTTTTT BIEL        TELAPSE       14.42 TCPU        3.26
 TTTTTTTTTTTTTTTTTTTTTTTTTTTTTT TOTENY      TELAPSE       14.42 TCPU        3.26
 NUMERICALLY INTEGRATED DENSITY     12.0018075787
 TTTTTTTTTTTTTTTTTTTTTTTTTTTTTT NUMDFT      TELAPSE       14.79 TCPU        3.53
 CYC  11 ETOT(AU) -7.612855622737E+01 DETOT -1.08E-05 tst  6.02E-06 PX  1.52E-03
 TTTTTTTTTTTTTTTTTTTTTTTTTTTTTT FDIK        TELAPSE       14.84 TCPU        3.53
 INSULATING STATE - TOP OF VALENCE BANDS (A.U.) -8.2716372E-02
 TTTTTTTTTTTTTTTTTTTTTTTTTTTTTT PDIG        TELAPSE       15.04 TCPU        3.53
 CHARGE NORMALIZATION FACTOR   1.00000000
 TOTAL ATOMIC CHARGES:
   6.0000000   6.0000000
 TTTTTTTTTTTTTTTTTTTTTTTTTTTTTT QGAM        TELAPSE       15.05 TCPU        3.53
 TTTTTTTTTTTTTTTTTTTTTTTTTTTTTT BIEL        TELAPSE       15.05 TCPU        3.53
 TTTTTTTTTTTTTTTTTTTTTTTTTTTTTT TOTENY      TELAPSE       15.10 TCPU        3.53
 NUMERICALLY INTEGRATED DENSITY     12.0018084588
 TTTTTTTTTTTTTTTTTTTTTTTTTTTTTT NUMDFT      TELAPSE       15.41 TCPU        3.79
 CYC  12 ETOT(AU) -7.612856264485E+01 DETOT -6.42E-06 tst  3.82E-06 PX  1.20E-03
 TTTTTTTTTTTTTTTTTTTTTTTTTTTTTT FDIK        TELAPSE       15.42 TCPU        3.79
 INSULATING STATE - TOP OF VALENCE BANDS (A.U.) -8.3079481E-02
 TTTTTTTTTTTTTTTTTTTTTTTTTTTTTT PDIG        TELAPSE       15.59 TCPU        3.79
 CHARGE NORMALIZATION FACTOR   1.00000000
 TOTAL ATOMIC CHARGES:
   6.0000000   6.0000000
 TTTTTTTTTTTTTTTTTTTTTTTTTTTTTT QGAM        TELAPSE       15.59 TCPU        3.79
 TTTTTTTTTTTTTTTTTTTTTTTTTTTTTT BIEL        TELAPSE       15.60 TCPU        3.79
 TTTTTTTTTTTTTTTTTTTTTTTTTTTTTT TOTENY      TELAPSE       15.70 TCPU        3.79
 NUMERICALLY INTEGRATED DENSITY     12.0018090155
 TTTTTTTTTTTTTTTTTTTTTTTTTTTTTT NUMDFT      TELAPSE       16.06 TCPU        4.06
 CYC  13 ETOT(AU) -7.612856647762E+01 DETOT -3.83E-06 tst  2.70E-06 PX  9.42E-04
 TTTTTTTTTTTTTTTTTTTTTTTTTTTTTT FDIK        TELAPSE       16.07 TCPU        4.06
 INSULATING STATE - TOP OF VALENCE BANDS (A.U.) -8.3387323E-02
 TTTTTTTTTTTTTTTTTTTTTTTTTTTTTT PDIG        TELAPSE       16.29 TCPU        4.07
 CHARGE NORMALIZATION FACTOR   1.00000000
 TOTAL ATOMIC CHARGES:
   6.0000000   6.0000000
 TTTTTTTTTTTTTTTTTTTTTTTTTTTTTT QGAM        TELAPSE       16.29 TCPU        4.07
 TTTTTTTTTTTTTTTTTTTTTTTTTTTTTT BIEL        TELAPSE       16.30 TCPU        4.07
 TTTTTTTTTTTTTTTTTTTTTTTTTTTTTT TOTENY      TELAPSE       16.42 TCPU        4.07
 NUMERICALLY INTEGRATED DENSITY     12.0018093660
 TTTTTTTTTTTTTTTTTTTTTTTTTTTTTT NUMDFT      TELAPSE       16.68 TCPU        4.30
 CYC  14 ETOT(AU) -7.612856877623E+01 DETOT -2.30E-06 tst  1.99E-06 PX  7.35E-04
 TTTTTTTTTTTTTTTTTTTTTTTTTTTTTT FDIK        TELAPSE       16.69 TCPU        4.31
 INSULATING STATE - TOP OF VALENCE BANDS (A.U.) -8.3641484E-02
 TTTTTTTTTTTTTTTTTTTTTTTTTTTTTT PDIG        TELAPSE       16.83 TCPU        4.32
 CHARGE NORMALIZATION FACTOR   1.00000000
 TOTAL ATOMIC CHARGES:
   6.0000000   6.0000000
 TTTTTTTTTTTTTTTTTTTTTTTTTTTTTT QGAM        TELAPSE       16.84 TCPU        4.32
 TTTTTTTTTTTTTTTTTTTTTTTTTTTTTT BIEL        TELAPSE       16.84 TCPU        4.33
 TTTTTTTTTTTTTTTTTTTTTTTTTTTTTT TOTENY      TELAPSE       16.86 TCPU        4.33
 NUMERICALLY INTEGRATED DENSITY     12.0018095833
 TTTTTTTTTTTTTTTTTTTTTTTTTTTTTT NUMDFT      TELAPSE       17.34 TCPU        4.53
 CYC  15 ETOT(AU) -7.612857015891E+01 DETOT -1.38E-06 tst  1.46E-06 PX  5.72E-04
 TTTTTTTTTTTTTTTTTTTTTTTTTTTTTT FDIK        TELAPSE       17.35 TCPU        4.53
 INSULATING STATE - TOP OF VALENCE BANDS (A.U.) -8.3847291E-02
 TTTTTTTTTTTTTTTTTTTTTTTTTTTTTT PDIG        TELAPSE       17.40 TCPU        4.53
 CHARGE NORMALIZATION FACTOR   1.00000000
 TOTAL ATOMIC CHARGES:
   6.0000000   6.0000000
 TTTTTTTTTTTTTTTTTTTTTTTTTTTTTT QGAM        TELAPSE       17.40 TCPU        4.53
 TTTTTTTTTTTTTTTTTTTTTTTTTTTTTT BIEL        TELAPSE       17.40 TCPU        4.54
 TTTTTTTTTTTTTTTTTTTTTTTTTTTTTT TOTENY      TELAPSE       17.41 TCPU        4.54
 NUMERICALLY INTEGRATED DENSITY     12.0018097186
 TTTTTTTTTTTTTTTTTTTTTTTTTTTTTT NUMDFT      TELAPSE       17.73 TCPU        4.73
 CYC  16 ETOT(AU) -7.612857099551E+01 DETOT -8.37E-07 tst  1.06E-06 PX  4.44E-04
 TTTTTTTTTTTTTTTTTTTTTTTTTTTTTT FDIK        TELAPSE       17.74 TCPU        4.73
 INSULATING STATE - TOP OF VALENCE BANDS (A.U.) -8.4011855E-02
 TTTTTTTTTTTTTTTTTTTTTTTTTTTTTT PDIG        TELAPSE       17.84 TCPU        4.73
 CHARGE NORMALIZATION FACTOR   1.00000000
 TOTAL ATOMIC CHARGES:
   6.0000000   6.0000000
 TTTTTTTTTTTTTTTTTTTTTTTTTTTTTT QGAM        TELAPSE       17.86 TCPU        4.73
 TTTTTTTTTTTTTTTTTTTTTTTTTTTTTT BIEL        TELAPSE       17.87 TCPU        4.73
 TTTTTTTTTTTTTTTTTTTTTTTTTTTTTT TOTENY      TELAPSE       17.87 TCPU        4.73
 NUMERICALLY INTEGRATED DENSITY     12.0018098016
 TTTTTTTTTTTTTTTTTTTTTTTTTTTTTT NUMDFT      TELAPSE       18.19 TCPU        4.91
 CYC  17 ETOT(AU) -7.612857150264E+01 DETOT -5.07E-07 tst  7.60E-07 PX  3.44E-04
 TTTTTTTTTTTTTTTTTTTTTTTTTTTTTT FDIK        TELAPSE       18.19 TCPU        4.91
 INSULATING STATE - TOP OF VALENCE BANDS (A.U.) -8.4142067E-02
 TTTTTTTTTTTTTTTTTTTTTTTTTTTTTT PDIG        TELAPSE       18.22 TCPU        4.92
 CHARGE NORMALIZATION FACTOR   1.00000000
 TOTAL ATOMIC CHARGES:
   6.0000000   6.0000000
 TTTTTTTTTTTTTTTTTTTTTTTTTTTTTT QGAM        TELAPSE       18.23 TCPU        4.92
 TTTTTTTTTTTTTTTTTTTTTTTTTTTTTT BIEL        TELAPSE       18.23 TCPU        4.92
 TTTTTTTTTTTTTTTTTTTTTTTTTTTTTT TOTENY      TELAPSE       18.31 TCPU        4.92
 NUMERICALLY INTEGRATED DENSITY     12.0018098533
 TTTTTTTTTTTTTTTTTTTTTTTTTTTTTT NUMDFT      TELAPSE       18.58 TCPU        5.11
 CYC  18 ETOT(AU) -7.612857181038E+01 DETOT -3.08E-07 tst  5.43E-07 PX  2.65E-04
 TTTTTTTTTTTTTTTTTTTTTTTTTTTTTT FDIK        TELAPSE       18.59 TCPU        5.11
 INSULATING STATE - TOP OF VALENCE BANDS (A.U.) -8.4244452E-02
 TTTTTTTTTTTTTTTTTTTTTTTTTTTTTT PDIG        TELAPSE       18.77 TCPU        5.11
 CHARGE NORMALIZATION FACTOR   1.00000000
 TOTAL ATOMIC CHARGES:
   6.0000000   6.0000000
 TTTTTTTTTTTTTTTTTTTTTTTTTTTTTT QGAM        TELAPSE       18.81 TCPU        5.11
 TTTTTTTTTTTTTTTTTTTTTTTTTTTTTT BIEL        TELAPSE       18.81 TCPU        5.11
 TTTTTTTTTTTTTTTTTTTTTTTTTTTTTT TOTENY      TELAPSE       18.83 TCPU        5.11
 NUMERICALLY INTEGRATED DENSITY     12.0018098853
 TTTTTTTTTTTTTTTTTTTTTTTTTTTTTT NUMDFT      TELAPSE       19.21 TCPU        5.30
 CYC  19 ETOT(AU) -7.612857200273E+01 DETOT -1.92E-07 tst  3.86E-07 PX  2.06E-04
 TTTTTTTTTTTTTTTTTTTTTTTTTTTTTT FDIK        TELAPSE       19.21 TCPU        5.30
 INSULATING STATE - TOP OF VALENCE BANDS (A.U.) -8.4324506E-02
 TTTTTTTTTTTTTTTTTTTTTTTTTTTTTT PDIG        TELAPSE       19.34 TCPU        5.32
 CHARGE NORMALIZATION FACTOR   1.00000000
 TOTAL ATOMIC CHARGES:
   6.0000000   6.0000000
 TTTTTTTTTTTTTTTTTTTTTTTTTTTTTT QGAM        TELAPSE       19.35 TCPU        5.32
 TTTTTTTTTTTTTTTTTTTTTTTTTTTTTT BIEL        TELAPSE       19.35 TCPU        5.33
 TTTTTTTTTTTTTTTTTTTTTTTTTTTTTT TOTENY      TELAPSE       19.40 TCPU        5.33
 NUMERICALLY INTEGRATED DENSITY     12.0018099053
 TTTTTTTTTTTTTTTTTTTTTTTTTTTTTT NUMDFT      TELAPSE       19.77 TCPU        5.60
 CYC  20 ETOT(AU) -7.612857212163E+01 DETOT -1.19E-07 tst  2.74E-07 PX  1.60E-04
 TTTTTTTTTTTTTTTTTTTTTTTTTTTTTT FDIK        TELAPSE       19.78 TCPU        5.61
 INSULATING STATE - TOP OF VALENCE BANDS (A.U.) -8.4386881E-02
 TTTTTTTTTTTTTTTTTTTTTTTTTTTTTT PDIG        TELAPSE       19.88 TCPU        5.62
 CHARGE NORMALIZATION FACTOR   1.00000000
 TOTAL ATOMIC CHARGES:
   6.0000000   6.0000000
 TTTTTTTTTTTTTTTTTTTTTTTTTTTTTT QGAM        TELAPSE       19.94 TCPU        5.62
 TTTTTTTTTTTTTTTTTTTTTTTTTTTTTT BIEL        TELAPSE       19.94 TCPU        5.62
 TTTTTTTTTTTTTTTTTTTTTTTTTTTTTT TOTENY      TELAPSE       19.95 TCPU        5.62
 NUMERICALLY INTEGRATED DENSITY     12.0018099182
 TTTTTTTTTTTTTTTTTTTTTTTTTTTTTT NUMDFT      TELAPSE       20.34 TCPU        5.89
 CYC  21 ETOT(AU) -7.612857219470E+01 DETOT -7.31E-08 tst  1.93E-07 PX  1.23E-04
 TTTTTTTTTTTTTTTTTTTTTTTTTTTTTT FDIK        TELAPSE       20.35 TCPU        5.89
 INSULATING STATE - TOP OF VALENCE BANDS (A.U.) -8.4435379E-02
 TTTTTTTTTTTTTTTTTTTTTTTTTTTTTT PDIG        TELAPSE       20.49 TCPU        5.89
 CHARGE NORMALIZATION FACTOR   1.00000000
 TOTAL ATOMIC CHARGES:
   6.0000000   6.0000000
 TTTTTTTTTTTTTTTTTTTTTTTTTTTTTT QGAM        TELAPSE       20.49 TCPU        5.89
 TTTTTTTTTTTTTTTTTTTTTTTTTTTTTT BIEL        TELAPSE       20.49 TCPU        5.89
 +++ ENERGIES IN A.U. +++
 ::: EXT EL-POLE : L =  0                         -2.7428431543844E+02
 ::: EXT EL-POLE : L =  1                          9.3650594570762E-18
 ::: EXT EL-POLE : L =  2                          1.7308920630266E-18
 ::: EXT EL-POLE : L =  3                         -1.0249723373693E-03
 ::: EXT EL-POLE : L =  4                         -2.1389909188053E-05
 ::: EXT EL-SPHEROPOLE                             3.4708535567035E+00
 ::: BIELET ZONE E-E                               2.8355438867817E+02
 ::: TOTAL E-E                                     1.2739880434192E+01
 ::: TOTAL E-N + N-E                              -1.2718925631425E+02
 ::: TOTAL N-N                                    -2.8745251523599E+01
 ::: KINETIC ENERGY                                7.5876660939699E+01
 ::: PSEUDO TOTAL   ENERGY                        -6.7317966463961E+01
 ::: VIRIAL COEFFICIENT                            1.0597696619693E+00
 TTTTTTTTTTTTTTTTTTTTTTTTTTTTTT TOTENY      TELAPSE       20.50 TCPU        5.89
 NUMERICALLY INTEGRATED DENSITY     12.0018099264
 TTTTTTTTTTTTTTTTTTTTTTTTTTTTTT NUMDFT      TELAPSE       21.01 TCPU        6.12
 CYC  22 ETOT(AU) -7.612857224134E+01 DETOT -4.66E-08 tst  1.36E-07 PX  1.23E-04

 == SCF ENDED - CONVERGENCE ON ENERGY      E(AU) -7.6128572241337E+01 CYCLES  22


 ENERGY EXPRESSION=HARTREE+FOCK EXCH*0.20000+(BECKE EXCH)*0.80000+LYP   CORR


 TOTAL ENERGY(DFT)(AU)( 22) -7.6128572241337E+01 DE-4.7E-08 tester 1.4E-07
 TTTTTTTTTTTTTTTTTTTTTTTTTTTTTT EDFT        TELAPSE       21.01 TCPU        6.12

 *******************************************************************************
 *                             FORCE CALCULATION                               *
 *******************************************************************************

 TTTTTTTTTTTTTTTTTTTTTTTTTTTTTT NUMDFG      TELAPSE       23.88 TCPU        7.86
 INFORMATION **** EXCPOG **** EXCH. BIPO BUFFER LENGTH (WORDS) =   1041696
 INFORMATION **** GENPOG **** BIPO BUFFER LENGTH (WORDS) =     62200
 TTTTTTTTTTTTTTTTTTTTTTTTTTTTTT SHELXG      TELAPSE       34.85 TCPU       15.58

 CARTESIAN FORCES (ANALYTICAL)
   ATOM                     X                   Y                   Z
   1   6            -9.412537571905E-16  1.039415697658E-15  1.263603537615E-15
   2   6             9.516620980464E-16 -1.035946250706E-15 -1.258977608345E-15

 RESULTANT FORCE     1.040834085586E-17  3.469446951954E-18  4.625929269271E-18

ATOMIC PART

 THERE ARE NO SYMMETRY ALLOWED DIRECTIONS

CELL PART

 SYMMETRY ALLOWED FORCES (ANALYTICAL) (DIRECTION, FORCE)

    1  2.7471316E-02
 TTTTTTTTTTTTTTTTTTTTTTTTTTTTTT TOTGRA      TELAPSE       40.21 TCPU       15.63
 INFORMATION **** optc001 **** GEOMETRY OUTPUT FILE
 CLASSICAL MODEL (SCHLEGEL) USED AS INITIAL HESSIAN MATRIX
 REFERENCE GEOMETRY DEFINED

 MAX GRADIENT      0.027471  THRESHOLD              0.000450 CONVERGED NO
 RMS GRADIENT      0.027471  THRESHOLD              0.000300 CONVERGED NO

 GRADIENT NORM     0.027471  GRADIENT THRESHOLD     0.500000

 PREDICTED ENERGY CHANGE    -0.354E-04

 INITIAL DISPLACEMENTS
  0.001381
 TTTTTTTTTTTTTTTTTTTTTTTTTTTTTT OPTI        TELAPSE       40.21 TCPU       15.64

 OPTOPTOPTOPTOPTOPTOPTOPTOPTOPTOPTOPTOPTOPTOPTOPTOPTOPTOPTOPTOPTOPTOPTOPTOPTOPT

 STARTING GEOMETRY OPTIMIZATION - INFORMATION ON SCF MOVED TO SCFOUT.LOG
 GEOMETRY OPTIMIZATION INFORMATION STORED IN OPTINFO.DAT

 OPTOPTOPTOPTOPTOPTOPTOPTOPTOPTOPTOPTOPTOPTOPTOPTOPTOPTOPTOPTOPTOPTOPTOPTOPTOPT
 *******************************************************************************
 CELL OPTIMIZATION - POINT    2
 *******************************************************************************
 LATTICE PARAMETERS (ANGSTROMS AND DEGREES) - BOHR = 0.5291772083 ANGSTROM
 PRIMITIVE CELL - CENTRING CODE 5/0 VOLUME=    11.402049 - DENSITY 3.495 g/cm^3
         A              B              C           ALPHA      BETA       GAMMA 
     2.52638366     2.52638366     2.52638366    60.000000  60.000000  60.000000
 *******************************************************************************
 ATOMS IN THE ASYMMETRIC UNIT    1 - ATOMS IN THE UNIT CELL:    2
     ATOM              X/A                 Y/B                 Z/C    
 *******************************************************************************
   1 T   6 C     0.000000000000E+00  0.000000000000E+00  0.000000000000E+00
   2 F   6 C     2.500000000000E-01  2.500000000000E-01  2.500000000000E-01

 TRANSFORMATION MATRIX PRIMITIVE-CRYSTALLOGRAPHIC CELL
 -1.0000  1.0000  1.0000  1.0000 -1.0000  1.0000  1.0000  1.0000 -1.0000

 *******************************************************************************
 CRYSTALLOGRAPHIC CELL (VOLUME=         45.60819706)
         A              B              C           ALPHA      BETA       GAMMA 
     3.57284603     3.57284603     3.57284603    90.000000  90.000000  90.000000

 COORDINATES IN THE CRYSTALLOGRAPHIC CELL
     ATOM              X/A                 Y/B                 Z/C    
 *******************************************************************************
   1 T   6 C     0.000000000000E+00  0.000000000000E+00  0.000000000000E+00
   2 F   6 C     2.500000000000E-01 -2.500000000000E-01 -2.500000000000E-01

 T = ATOM BELONGING TO THE ASYMMETRIC UNIT

 TOTAL ENERGY(DFT)(AU)(  3) -7.6128606705642E+01     DE (AU)   -3.446E-05

 SYMMETRY ALLOWED FORCES  (COORDINATE, FORCE)

    1  2.2174972E-02

 GRADIENT NORM     0.022175  GRADIENT THRESHOLD     0.500000

 PREDICTED ENERGY CHANGE    -0.641E-04

 MAX GRADIENT      0.022175  THRESHOLD              0.000450 CONVERGED NO
 RMS GRADIENT      0.022175  THRESHOLD              0.000300 CONVERGED NO
 MAX DISPLAC.      0.005781  THRESHOLD              0.001800 CONVERGED NO
 RMS DISPLAC.      0.005781  THRESHOLD              0.001200 CONVERGED NO
 TTTTTTTTTTTTTTTTTTTTTTTTTTTTTT OPTI        TELAPSE       65.32 TCPU       25.71
 *******************************************************************************
 CELL OPTIMIZATION - POINT    3
 *******************************************************************************
 LATTICE PARAMETERS (ANGSTROMS AND DEGREES) - BOHR = 0.5291772083 ANGSTROM
 PRIMITIVE CELL - CENTRING CODE 5/0 VOLUME=    11.516604 - DENSITY 3.460 g/cm^3
         A              B              C           ALPHA      BETA       GAMMA 
     2.53481619     2.53481619     2.53481619    60.000000  60.000000  60.000000
 *******************************************************************************
 ATOMS IN THE ASYMMETRIC UNIT    1 - ATOMS IN THE UNIT CELL:    2
     ATOM              X/A                 Y/B                 Z/C    
 *******************************************************************************
   1 T   6 C     0.000000000000E+00  0.000000000000E+00  0.000000000000E+00
   2 F   6 C     2.500000000000E-01  2.500000000000E-01  2.500000000000E-01

 TRANSFORMATION MATRIX PRIMITIVE-CRYSTALLOGRAPHIC CELL
 -1.0000  1.0000  1.0000  1.0000 -1.0000  1.0000  1.0000  1.0000 -1.0000

 *******************************************************************************
 CRYSTALLOGRAPHIC CELL (VOLUME=         46.06641471)
         A              B              C           ALPHA      BETA       GAMMA 
     3.58477144     3.58477144     3.58477144    90.000000  90.000000  90.000000

 COORDINATES IN THE CRYSTALLOGRAPHIC CELL
     ATOM              X/A                 Y/B                 Z/C    
 *******************************************************************************
   1 T   6 C     0.000000000000E+00  0.000000000000E+00  0.000000000000E+00
   2 F   6 C     2.500000000000E-01 -2.500000000000E-01 -2.500000000000E-01

 T = ATOM BELONGING TO THE ASYMMETRIC UNIT

 TOTAL ENERGY(DFT)(AU)(  8) -7.6128677958596E+01     DE (AU)   -7.125E-05

 SYMMETRY ALLOWED FORCES  (COORDINATE, FORCE)

    1  2.0515749E-03

 GRADIENT NORM     0.002052  GRADIENT THRESHOLD     0.500000

 PREDICTED ENERGY CHANGE    -0.605E-06

 MAX GRADIENT      0.002052  THRESHOLD              0.000450 CONVERGED NO
 RMS GRADIENT      0.002052  THRESHOLD              0.000300 CONVERGED NO
 MAX DISPLAC.      0.000589  THRESHOLD              0.001800 CONVERGED YES
 RMS DISPLAC.      0.000589  THRESHOLD              0.001200 CONVERGED YES
 TTTTTTTTTTTTTTTTTTTTTTTTTTTTTT OPTI        TELAPSE       91.05 TCPU       37.66
 *******************************************************************************
 CELL OPTIMIZATION - POINT    4
 *******************************************************************************
 LATTICE PARAMETERS (ANGSTROMS AND DEGREES) - BOHR = 0.5291772083 ANGSTROM
 PRIMITIVE CELL - CENTRING CODE 5/0 VOLUME=    11.528365 - DENSITY 3.457 g/cm^3
         A              B              C           ALPHA      BETA       GAMMA 
     2.53567876     2.53567876     2.53567876    60.000000  60.000000  60.000000
 *******************************************************************************
 ATOMS IN THE ASYMMETRIC UNIT    1 - ATOMS IN THE UNIT CELL:    2
     ATOM              X/A                 Y/B                 Z/C    
 *******************************************************************************
   1 T   6 C     0.000000000000E+00  0.000000000000E+00  0.000000000000E+00
   2 F   6 C     2.500000000000E-01  2.500000000000E-01  2.500000000000E-01

 TRANSFORMATION MATRIX PRIMITIVE-CRYSTALLOGRAPHIC CELL
 -1.0000  1.0000  1.0000  1.0000 -1.0000  1.0000  1.0000  1.0000 -1.0000

 *******************************************************************************
 CRYSTALLOGRAPHIC CELL (VOLUME=         46.11345807)
         A              B              C           ALPHA      BETA       GAMMA 
     3.58599129     3.58599129     3.58599129    90.000000  90.000000  90.000000

 COORDINATES IN THE CRYSTALLOGRAPHIC CELL
     ATOM              X/A                 Y/B                 Z/C    
 *******************************************************************************
   1 T   6 C     0.000000000000E+00  0.000000000000E+00  0.000000000000E+00
   2 F   6 C     2.500000000000E-01 -2.500000000000E-01 -2.500000000000E-01

 T = ATOM BELONGING TO THE ASYMMETRIC UNIT

 TOTAL ENERGY(DFT)(AU)(  3) -7.6128678601927E+01     DE (AU)   -6.433E-07

 SYMMETRY ALLOWED FORCES  (COORDINATE, FORCE)

    1 -1.2595632E-05

 GRADIENT NORM     0.000013  GRADIENT THRESHOLD     0.500000

 PREDICTED ENERGY CHANGE    -0.227E-10

 MAX GRADIENT      0.000013  THRESHOLD              0.000450 CONVERGED YES
 RMS GRADIENT      0.000013  THRESHOLD              0.000300 CONVERGED YES
 MAX DISPLAC.      0.000004  THRESHOLD              0.001800 CONVERGED YES
 RMS DISPLAC.      0.000004  THRESHOLD              0.001200 CONVERGED YES

 CONVERGENCE TESTS SATISFIED AFTER   4 ENERGY AND GRADIENT CALCULATIONS

 ******************************************************************
 * OPT END - CONVERGED * E(AU):  -7.612867860193E+01  POINTS    4 *
 ******************************************************************

 EIGENVECTORS IN FORTRAN UNIT  8

 NEIGHBORS OF THE NON-EQUIVALENT ATOMS

 N = NUMBER OF NEIGHBORS AT DISTANCE R
    ATOM  N     R/ANG      R/AU   NEIGHBORS (ATOM LABELS AND CELL INDICES)
   1 C    4     1.5528     2.9343   2 C    0 0 0   2 C    1 0 0   2 C    1 0-1
                                    2 C    1-1 0
   1 C   12     2.5357     4.7917   1 C   -1 0 0   1 C    1 0 0   1 C   -1 0 1
                                    1 C    1 0-1   1 C   -1 1 0   1 C    1-1 0
                                    1 C    0-1 0   1 C    0 1 0   1 C    0-1 1
                                    1 C    0 1-1   1 C    0 0-1   1 C    0 0 1
   1 C   12     2.9733     5.6188   2 C    0 1 0   2 C    0-1 0   2 C    0 1-1
                                    2 C    0-1 1   2 C    0 0 1   2 C    0 0-1
                                    2 C    1 1-1   2 C    1-1 1   2 C    1-1-1
                                    2 C    2 0-1   2 C    2-1 0   2 C    2-1-1
   1 C    6     3.5860     6.7765   1 C   -1-1 1   1 C    1 1-1   1 C   -1 1-1
                                    1 C    1-1 1   1 C   -1 1 1   1 C    1-1-1
   1 C   12     3.9077     7.3846   2 C   -1 0 0   2 C   -1 0 1   2 C   -1 1 0
                                    2 C    1 1 0   2 C    1 1-2   2 C    1 0 1
                                    2 C    1 0-2   2 C    1-2 1   2 C    1-2 0
                                    2 C    2 0 0   2 C    2 0-2   2 C    2-2 0
   1 C   24     4.3919     8.2995   1 C   -2 0 1   1 C    2 0-1   1 C   -2 1 0
                                    1 C    2-1 0   1 C   -2 1 1   1 C    2-1-1
                                    1 C   -1-1 0   1 C    1 1 0   1 C   -1-1 2
                                    1 C    1 1-2   1 C   -1 0-1   1 C    1 0 1
                                    1 C   -1 0 2   1 C    1 0-2   1 C   -1 2-1
                                    1 C    1-2 1   1 C   -1 2 0   1 C    1-2 0
                                    1 C    0-2 1   1 C    0 2-1   1 C    0-1-1
                                    1 C    0 1 1   1 C    0-1 2   1 C    0 1-2


 FINAL OPTIMIZED GEOMETRY - DIMENSIONALITY OF THE SYSTEM      3
 (NON PERIODIC DIRECTION: LATTICE PARAMETER FORMALLY SET TO 500)
 *******************************************************************************
 LATTICE PARAMETERS (ANGSTROMS AND DEGREES) - BOHR = 0.5291772083 ANGSTROM
 PRIMITIVE CELL - CENTRING CODE 5/0 VOLUME=    11.528365 - DENSITY 3.457 g/cm^3
         A              B              C           ALPHA      BETA       GAMMA 
     2.53567876     2.53567876     2.53567876    60.000000  60.000000  60.000000
 *******************************************************************************
 ATOMS IN THE ASYMMETRIC UNIT    1 - ATOMS IN THE UNIT CELL:    2
     ATOM              X/A                 Y/B                 Z/C    
 *******************************************************************************
   1 T   6 C     0.000000000000E+00  0.000000000000E+00  0.000000000000E+00
   2 F   6 C     2.500000000000E-01  2.500000000000E-01  2.500000000000E-01

 TRANSFORMATION MATRIX PRIMITIVE-CRYSTALLOGRAPHIC CELL
 -1.0000  1.0000  1.0000  1.0000 -1.0000  1.0000  1.0000  1.0000 -1.0000

 *******************************************************************************
 CRYSTALLOGRAPHIC CELL (VOLUME=         46.11345807)
         A              B              C           ALPHA      BETA       GAMMA 
     3.58599129     3.58599129     3.58599129    90.000000  90.000000  90.000000

 COORDINATES IN THE CRYSTALLOGRAPHIC CELL
     ATOM              X/A                 Y/B                 Z/C    
 *******************************************************************************
   1 T   6 C     0.000000000000E+00  0.000000000000E+00  0.000000000000E+00
   2 F   6 C     2.500000000000E-01 -2.500000000000E-01 -2.500000000000E-01

 T = ATOM BELONGING TO THE ASYMMETRIC UNIT
 INFORMATION **** fort.34 **** GEOMETRY OUTPUT FILE

 DIRECT LATTICE VECTORS CARTESIAN COMPONENTS (ANGSTROM)
          X                    Y                    Z
   0.000000000000E+00   0.179299564540E+01   0.179299564540E+01
   0.179299564540E+01   0.000000000000E+00   0.179299564540E+01
   0.179299564540E+01   0.179299564540E+01   0.000000000000E+00


 CARTESIAN COORDINATES - PRIMITIVE CELL
 *******************************************************************************
 *      ATOM          X(ANGSTROM)         Y(ANGSTROM)         Z(ANGSTROM)
 *******************************************************************************
   1     6 C     0.000000000000E+00  0.000000000000E+00  0.000000000000E+00
   2     6 C     8.964978227003E-01 -8.964978227003E-01 -8.964978227003E-01

 ****  48 SYMMOPS - TRANSLATORS IN FRACTIONARY UNITS
  V INV                   ROTATION MATRICES                       TRANSLATOR
  1  1  1.00  0.00  0.00  0.00  1.00  0.00  0.00  0.00  1.00    0.00  0.00  0.00
  2  2  0.00  1.00  0.00  1.00  0.00  0.00 -1.00 -1.00 -1.00    0.00  0.00  0.00
  3  3 -1.00 -1.00 -1.00  0.00  0.00  1.00  0.00  1.00  0.00    0.00  0.00  0.00
  4  4  0.00  0.00  1.00 -1.00 -1.00 -1.00  1.00  0.00  0.00    0.00  0.00  0.00
  5  6  0.00  0.00  1.00  1.00  0.00  0.00  0.00  1.00  0.00    0.00  0.00  0.00
  6  5  0.00  1.00  0.00  0.00  0.00  1.00  1.00  0.00  0.00    0.00  0.00  0.00
  7  8  1.00  0.00  0.00  0.00  0.00  1.00 -1.00 -1.00 -1.00    0.00  0.00  0.00
  8  7  1.00  0.00  0.00 -1.00 -1.00 -1.00  0.00  1.00  0.00    0.00  0.00  0.00
  9 10 -1.00 -1.00 -1.00  0.00  1.00  0.00  1.00  0.00  0.00    0.00  0.00  0.00
 10  9  0.00  0.00  1.00  0.00  1.00  0.00 -1.00 -1.00 -1.00    0.00  0.00  0.00
 11 12  0.00  1.00  0.00 -1.00 -1.00 -1.00  0.00  0.00  1.00    0.00  0.00  0.00
 12 11 -1.00 -1.00 -1.00  1.00  0.00  0.00  0.00  0.00  1.00    0.00  0.00  0.00
 13 13  0.00 -1.00  0.00 -1.00  0.00  0.00  0.00  0.00 -1.00    0.25  0.25  0.25
 14 14 -1.00  0.00  0.00  0.00 -1.00  0.00  1.00  1.00  1.00    0.25  0.25  0.25
 15 16  0.00  0.00 -1.00  1.00  1.00  1.00  0.00 -1.00  0.00    0.25  0.25  0.25
 16 15  1.00  1.00  1.00  0.00  0.00 -1.00 -1.00  0.00  0.00    0.25  0.25  0.25
 17 17 -1.00  0.00  0.00  0.00  0.00 -1.00  0.00 -1.00  0.00    0.25  0.25  0.25
 18 18  0.00  0.00 -1.00  0.00 -1.00  0.00 -1.00  0.00  0.00    0.25  0.25  0.25
 19 21  0.00  0.00 -1.00 -1.00  0.00  0.00  1.00  1.00  1.00    0.25  0.25  0.25
 20 22  1.00  1.00  1.00 -1.00  0.00  0.00  0.00 -1.00  0.00    0.25  0.25  0.25
 21 19  0.00 -1.00  0.00  1.00  1.00  1.00 -1.00  0.00  0.00    0.25  0.25  0.25
 22 20  0.00 -1.00  0.00  0.00  0.00 -1.00  1.00  1.00  1.00    0.25  0.25  0.25
 23 23  1.00  1.00  1.00  0.00 -1.00  0.00  0.00  0.00 -1.00    0.25  0.25  0.25
 24 24 -1.00  0.00  0.00  1.00  1.00  1.00  0.00  0.00 -1.00    0.25  0.25  0.25
 25 25 -1.00  0.00  0.00  0.00 -1.00  0.00  0.00  0.00 -1.00    0.25  0.25  0.25
 26 26  0.00 -1.00  0.00 -1.00  0.00  0.00  1.00  1.00  1.00    0.25  0.25  0.25
 27 27  1.00  1.00  1.00  0.00  0.00 -1.00  0.00 -1.00  0.00    0.25  0.25  0.25
 28 28  0.00  0.00 -1.00  1.00  1.00  1.00 -1.00  0.00  0.00    0.25  0.25  0.25
 29 30  0.00  0.00 -1.00 -1.00  0.00  0.00  0.00 -1.00  0.00    0.25  0.25  0.25
 30 29  0.00 -1.00  0.00  0.00  0.00 -1.00 -1.00  0.00  0.00    0.25  0.25  0.25
 31 32 -1.00  0.00  0.00  0.00  0.00 -1.00  1.00  1.00  1.00    0.25  0.25  0.25
 32 31 -1.00  0.00  0.00  1.00  1.00  1.00  0.00 -1.00  0.00    0.25  0.25  0.25
 33 34  1.00  1.00  1.00  0.00 -1.00  0.00 -1.00  0.00  0.00    0.25  0.25  0.25
 34 33  0.00  0.00 -1.00  0.00 -1.00  0.00  1.00  1.00  1.00    0.25  0.25  0.25
 35 36  0.00 -1.00  0.00  1.00  1.00  1.00  0.00  0.00 -1.00    0.25  0.25  0.25
 36 35  1.00  1.00  1.00 -1.00  0.00  0.00  0.00  0.00 -1.00    0.25  0.25  0.25
 37 37  0.00  1.00  0.00  1.00  0.00  0.00  0.00  0.00  1.00    0.00  0.00  0.00
 38 38  1.00  0.00  0.00  0.00  1.00  0.00 -1.00 -1.00 -1.00    0.00  0.00  0.00
 39 40  0.00  0.00  1.00 -1.00 -1.00 -1.00  0.00  1.00  0.00    0.00  0.00  0.00
 40 39 -1.00 -1.00 -1.00  0.00  0.00  1.00  1.00  0.00  0.00    0.00  0.00  0.00
 41 41  1.00  0.00  0.00  0.00  0.00  1.00  0.00  1.00  0.00    0.00  0.00  0.00
 42 42  0.00  0.00  1.00  0.00  1.00  0.00  1.00  0.00  0.00    0.00  0.00  0.00
 43 45  0.00  0.00  1.00  1.00  0.00  0.00 -1.00 -1.00 -1.00    0.00  0.00  0.00
 44 46 -1.00 -1.00 -1.00  1.00  0.00  0.00  0.00  1.00  0.00    0.00  0.00  0.00
 45 43  0.00  1.00  0.00 -1.00 -1.00 -1.00  1.00  0.00  0.00    0.00  0.00  0.00
 46 44  0.00  1.00  0.00  0.00  0.00  1.00 -1.00 -1.00 -1.00    0.00  0.00  0.00
 47 47 -1.00 -1.00 -1.00  0.00  1.00  0.00  0.00  0.00  1.00    0.00  0.00  0.00
 48 48  1.00  0.00  0.00 -1.00 -1.00 -1.00  0.00  0.00  1.00    0.00  0.00  0.00
 TTTTTTTTTTTTTTTTTTTTTTTTTTTTTT END         TELAPSE      118.47 TCPU       48.20
 EEEEEEEEEE TERMINATION  DATE 23 02 2010 TIME 03:48:43.1
NODE    0 CPU TIME =        48.200
NODE    1 CPU TIME =        25.290
NODE    2 CPU TIME =        64.560
NODE    3 CPU TIME =        40.270
NODE    4 CPU TIME =        24.710
NODE    5 CPU TIME =        41.970
NODE    6 CPU TIME =        75.350
NODE    7 CPU TIME =        47.980
    TOTAL CPU TIME =       368.330
Tue Feb 23 03:48:43 EST 2010
