/crystal2k
EDI Extra grid Freq                                       
EXTERNAL
COORPRT
FREQCALC
NUMDERIV
2
RESTART
MODES
END
ENDG
14 5
2 0 6 2.0 1.0
2 1 6 8.0 1.0
2 1 2 4.0 1.0
0 1 1 0.0 1.0
0.13 1. 1.
0 3 1 0. 1.
0.5 1.
8 4
0 0 6 2.0 1.0
 0.5484671660D+04  0.1831074430D-02
 0.8252349460D+03  0.1395017220D-01
 0.1880469580D+03  0.6844507810D-01
 0.5296450000D+02  0.2327143360D+00
 0.1689757040D+02  0.4701928980D+00
 0.5799635340D+01  0.3585208530D+00
0 1   3 6.0 1.00
 0.1553961625D+02 -0.1107775490D+00  0.7087426820D-01
 0.3599933586D+01 -0.1480262620D+00  0.3397528390D+00
 0.1013761750D+01  0.1130767010D+01  0.7271585770D+00
0 1   1 0.0 1.00
 0.2742  0.1000000000D+01  0.1000000000D+01
0 3  1 0. 1.
 0.6 1. 
1 3
0 0    3 1. 1.00
 0.1873113696D+02  0.3349460434D-01
 0.2825394365D+01  0.2347269535D+00
 0.6401216923D+00  0.8137573262D+00
0 0     1 0. 1.00
 0.1612777588D+00  0.1000000000D+01
0 2 1 0. 1.
 1.1  1.
99 0
ENDBS
DFT
NEWTON
NUMERICAL
B3LYP
RADIAL
1
4.0
75
ANGULAR
5
0.1667 0.5 0.9 3.5 9999.0  
4 8 12 16 12
TOLLGRID
14
TOLLDENS
6  
ENDDFT
SCFDIR
TOLINTEG
6 6 6 6 14
POLEORDR
6
ENDM
2 2 2
LEVSHIFT
6 1
FMIXING
30
TOLDEE
11
ENDSCF
sab ago 21 19:54:28 CEST 2004

         
 *******************************************************************************
 *                                                                             *
 *                                CRYSTAL03                                    *
 *                         Release : 1.0.3/freq1.0.3                           *
 *                                                                             *
 *                                                                             *
 *                              MAIN AUTHORS                                   *
 *                                                                             *
 *      V.R. SAUNDERS(1), R. DOVESI(2), C. ROETTI(2), R. ORLANDO (2,3),        *
 *      C.M. ZICOVICH-WILSON(2,4), N.M. HARRISON(1,5), K. DOLL(1,6),           *
 *      B. CIVALLERI(2), I. J. BUSH(1), Ph. D'ARCO(2,7), M. LLUNELL(2,8)       *
 *                                                                             *
 *                                                                             *
 * (1) COMPUTATIONAL SCIENCE & ENGINEERING DEPARTMENT - CLRC DARESBURY (UK)    *
 *     http://www.cse.dl.ac.uk/Activity/CRYSTAL                                *
 * (2) THEORETICAL CHEMISTRY GROUP - UNIVERSITA' DI TORINO - TORINO (ITALY)    *
 *      http://www.crystal.unito.it                                            *
 * (3) UNIVERSITA' DEL PIEMONTE ORIENTALE - ALESSANDRIA (ITALY)                *
 * (4) UNIVERSIDAD AUTONOMA DEL ESTADO DE MORELOS - CUERNAVACA (MEXICO)        *
 * (5) IMPERIAL COLLEGE - LONDON (UK)                                          *
 * (6) TU BRAUNSCHWEIG - BRAUNSCHWEIG (GERMANY)                                *
 * (7) UNIVERSITE' PIERRE ET MARIE CURIE - PARIS (FRANCE)                      *
 * (8) UNIVERSIDAD DE BARCELONA - BARCELONA (SPAIN) *                          *
 *******************************************************************************
 EEEEEEEEEE STARTING  DATE 21 08 2004 TIME 19:54:29.7
 EDI Extra grid Freq                                                             

 GEOMETRY INPUT FROM EXTERNAL FILE (FORTRAN UNIT 34)
 2D - SLAB    

 *******************************************************************************
 LATTICE PARAMETERS  (ANGSTROMS AND DEGREES) - PRIMITIVE CELL
       A          B          C         ALPHA      BETA     GAMMA        VOLUME
    6.47910    6.97100  500.00000     90.0000   90.0000   90.0000      45.16581

 NUMBER OF IRREDUCIBLE ATOMS IN THE CELL:   13

 CARTESIAN COORDINATES (ANGSTROM) - IRREDUCIBLE ATOMS AND SYMMETRY RELATED

 AT.IRR.  AT  AT.N.          X                   Y                   Z
     1     1    14   -2.442232983616E+00  0.000000000000E+00 -3.481813326107E+00
     1     2    14   -2.442232983616E+00  0.000000000000E+00  3.481813326107E+00
     2     3    14    2.299360493700E-02  0.000000000000E+00 -1.607413605696E+00
     2     4    14    2.299360493700E-02  0.000000000000E+00  1.607413605696E+00
     3     5     8   -1.519197479613E+00  0.000000000000E+00 -2.137434754515E+00
     3     6     8   -1.519197479613E+00  0.000000000000E+00  2.137434754515E+00
     4     7     8    2.327568701800E-02  0.000000000000E+00  0.000000000000E+00
     5     8     8    3.112150989838E+00  1.343721385753E+00 -3.481225172410E+00
     5     9     8    3.112150989838E+00 -1.343721385753E+00  3.481225172410E+00
     5    10     8    3.112150989838E+00 -1.343721385753E+00 -3.481225172410E+00
     5    11     8    3.112150989838E+00  1.343721385753E+00  3.481225172410E+00
     6    12     8    7.930439595420E-01  1.336561944869E+00 -2.153325532968E+00
     6    13     8    7.930439595420E-01 -1.336561944869E+00  2.153325532968E+00
     6    14     8    7.930439595420E-01 -1.336561944869E+00 -2.153325532968E+00
     6    15     8    7.930439595420E-01  1.336561944869E+00  2.153325532968E+00
     7    16    14    1.570568737547E+00  1.877384767675E+00 -3.487481920490E+00
     7    17    14    1.570568737547E+00 -1.877384767675E+00  3.487481920490E+00
     7    18    14    1.570568737547E+00 -1.877384767675E+00 -3.487481920490E+00
     7    19    14    1.570568737547E+00  1.877384767675E+00  3.487481920490E+00
     8    20     8    1.577658010770E+00 -3.485500000000E+00 -3.490465161017E+00
     8    21     8    1.577658010770E+00  3.485500000000E+00  3.490465161017E+00
     9    22    14    1.524533440500E-02  0.000000000000E+00 -5.375607269602E+00
     9    23    14    1.524533440500E-02  0.000000000000E+00  5.375607269602E+00
    10    24     8   -1.519663324367E+00  0.000000000000E+00 -4.826147232088E+00
    10    25     8   -1.519663324367E+00  0.000000000000E+00  4.826147232088E+00
    11    26     8   -7.828969997300E-02  0.000000000000E+00 -6.999733314917E+00
    11    27     8   -7.828969997300E-02  0.000000000000E+00  6.999733314917E+00
    12    28     8    8.067907268040E-01  1.330727345848E+00 -4.827295019811E+00
    12    29     8    8.067907268040E-01 -1.330727345848E+00  4.827295019811E+00
    12    30     8    8.067907268040E-01 -1.330727345848E+00 -4.827295019811E+00
    12    31     8    8.067907268040E-01  1.330727345848E+00  4.827295019811E+00
    13    32     1    7.544838301340E-01  0.000000000000E+00 -7.484297989250E+00
    13    33     1    7.544838301340E-01  0.000000000000E+00  7.484297989250E+00

 NUMBER OF SYMMETRY OPERATORS         :    4
 *******************************************************************************
 LATTICE PARAMETERS (ANGSTROMS AND DEGREES) - BOHR = 0.5291772083 ANGSTROM
 PRIMITIVE CELL
         A              B              C           ALPHA      BETA       GAMMA 
     6.47910000     6.97100000   500.00000000    90.000000  90.000000  90.000000
 *******************************************************************************
 ATOMS IN THE ASYMMETRIC UNIT   13 - ATOMS IN THE UNIT CELL:   33
     ATOM              X/A                 Y/B             Z(ANGSTROM)
 *******************************************************************************
   1 T  14 SI   -3.769401589134E-01  0.000000000000E+00 -3.481813326107E+00
   2 F  14 SI   -3.769401589134E-01  0.000000000000E+00  3.481813326107E+00
   3 T  14 SI    3.548888724823E-03  0.000000000000E+00 -1.607413605696E+00
   4 F  14 SI    3.548888724823E-03  0.000000000000E+00  1.607413605696E+00
   5 T   8 O    -2.344766216933E-01  0.000000000000E+00 -2.137434754515E+00
   6 F   8 O    -2.344766216933E-01  0.000000000000E+00  2.137434754515E+00
   7 T   8 O     3.592425957000E-03  0.000000000000E+00  0.000000000000E+00
   8 T   8 O     4.803369279434E-01  1.927587700119E-01 -3.481225172410E+00
   9 F   8 O     4.803369279434E-01 -1.927587700119E-01  3.481225172410E+00
  10 F   8 O     4.803369279434E-01 -1.927587700119E-01 -3.481225172410E+00
  11 F   8 O     4.803369279434E-01  1.927587700119E-01  3.481225172410E+00
  12 T   8 O     1.224003271353E-01  1.917317378954E-01 -2.153325532968E+00
  13 F   8 O     1.224003271353E-01 -1.917317378954E-01  2.153325532968E+00
  14 F   8 O     1.224003271353E-01 -1.917317378954E-01 -2.153325532968E+00
  15 F   8 O     1.224003271353E-01  1.917317378954E-01  2.153325532968E+00
  16 T  14 SI    2.424053861720E-01  2.693135515242E-01 -3.487481920490E+00
  17 F  14 SI    2.424053861720E-01 -2.693135515242E-01  3.487481920490E+00
  18 F  14 SI    2.424053861720E-01 -2.693135515242E-01 -3.487481920490E+00
  19 F  14 SI    2.424053861720E-01  2.693135515242E-01  3.487481920490E+00
  20 T   8 O     2.434995617864E-01  5.000000000000E-01 -3.490465161017E+00
  21 F   8 O     2.434995617864E-01 -5.000000000000E-01  3.490465161017E+00
  22 T  14 SI    2.353001868315E-03  0.000000000000E+00 -5.375607269602E+00
  23 F  14 SI    2.353001868315E-03  0.000000000000E+00  5.375607269602E+00
  24 T   8 O    -2.345485213019E-01  0.000000000000E+00 -4.826147232088E+00
  25 F   8 O    -2.345485213019E-01  0.000000000000E+00  4.826147232088E+00
  26 T   8 O    -1.208342207606E-02  0.000000000000E+00 -6.999733314917E+00
  27 F   8 O    -1.208342207606E-02  0.000000000000E+00  6.999733314917E+00
  28 T   8 O     1.245220365180E-01  1.908947562542E-01 -4.827295019811E+00
  29 F   8 O     1.245220365180E-01 -1.908947562542E-01  4.827295019811E+00
  30 F   8 O     1.245220365180E-01 -1.908947562542E-01 -4.827295019811E+00
  31 F   8 O     1.245220365180E-01  1.908947562542E-01  4.827295019811E+00
  32 T   1 H     1.164488632887E-01  0.000000000000E+00 -7.484297989250E+00
  33 F   1 H     1.164488632887E-01  0.000000000000E+00  7.484297989250E+00

 T = ATOM BELONGING TO THE ASYMMETRIC UNIT

 INTRACELL NUCLEAR REPULSION (A.U.)  5.6849334718907E+03
 *******************************************************************************
 * GEOMETRY MANIPULATION - INPUT COORDINATES ARE GIVEN IN ANGSTROM          
 *******************************************************************************

 GEOMETRY NOW FULLY CONSISTENT WITH THE GROUP
 *******************************************************************************
 LATTICE PARAMETERS (ANGSTROMS AND DEGREES) - BOHR = 0.5291772083 ANGSTROM
 PRIMITIVE CELL
         A              B              C           ALPHA      BETA       GAMMA 
     6.47910000     6.97100000   500.00000000    90.000000  90.000000  90.000000
 *******************************************************************************
 ATOMS IN THE ASYMMETRIC UNIT   13 - ATOMS IN THE UNIT CELL:   33
     ATOM              X/A                 Y/B             Z(ANGSTROM)
 *******************************************************************************
   1 T  14 SI   -3.769401589134E-01  0.000000000000E+00 -3.481813326107E+00
   2 F  14 SI   -3.769401589134E-01  0.000000000000E+00  3.481813326107E+00
   3 T  14 SI    3.548888724823E-03  0.000000000000E+00 -1.607413605696E+00
   4 F  14 SI    3.548888724823E-03  0.000000000000E+00  1.607413605696E+00
   5 T   8 O    -2.344766216933E-01  0.000000000000E+00 -2.137434754515E+00
   6 F   8 O    -2.344766216933E-01  0.000000000000E+00  2.137434754515E+00
   7 T   8 O     3.592425957000E-03  0.000000000000E+00  0.000000000000E+00
   8 T   8 O     4.803369279434E-01  1.927587700119E-01 -3.481225172410E+00
   9 F   8 O     4.803369279434E-01 -1.927587700119E-01  3.481225172410E+00
  10 F   8 O     4.803369279434E-01 -1.927587700119E-01 -3.481225172410E+00
  11 F   8 O     4.803369279434E-01  1.927587700119E-01  3.481225172410E+00
  12 T   8 O     1.224003271353E-01  1.917317378954E-01 -2.153325532968E+00
  13 F   8 O     1.224003271353E-01 -1.917317378954E-01  2.153325532968E+00
  14 F   8 O     1.224003271353E-01 -1.917317378954E-01 -2.153325532968E+00
  15 F   8 O     1.224003271353E-01  1.917317378954E-01  2.153325532968E+00
  16 T  14 SI    2.424053861720E-01  2.693135515242E-01 -3.487481920490E+00
  17 F  14 SI    2.424053861720E-01 -2.693135515242E-01  3.487481920490E+00
  18 F  14 SI    2.424053861720E-01 -2.693135515242E-01 -3.487481920490E+00
  19 F  14 SI    2.424053861720E-01  2.693135515242E-01  3.487481920490E+00
  20 T   8 O     2.434995617864E-01  5.000000000000E-01 -3.490465161017E+00
  21 F   8 O     2.434995617864E-01 -5.000000000000E-01  3.490465161017E+00
  22 T  14 SI    2.353001868315E-03  0.000000000000E+00 -5.375607269602E+00
  23 F  14 SI    2.353001868315E-03  0.000000000000E+00  5.375607269602E+00
  24 T   8 O    -2.345485213019E-01  0.000000000000E+00 -4.826147232088E+00
  25 F   8 O    -2.345485213019E-01  0.000000000000E+00  4.826147232088E+00
  26 T   8 O    -1.208342207606E-02  0.000000000000E+00 -6.999733314917E+00
  27 F   8 O    -1.208342207606E-02  0.000000000000E+00  6.999733314917E+00
  28 T   8 O     1.245220365180E-01  1.908947562542E-01 -4.827295019811E+00
  29 F   8 O     1.245220365180E-01 -1.908947562542E-01  4.827295019811E+00
  30 F   8 O     1.245220365180E-01 -1.908947562542E-01 -4.827295019811E+00
  31 F   8 O     1.245220365180E-01  1.908947562542E-01  4.827295019811E+00
  32 T   1 H     1.164488632887E-01  0.000000000000E+00 -7.484297989250E+00
  33 F   1 H     1.164488632887E-01  0.000000000000E+00  7.484297989250E+00

 T = ATOM BELONGING TO THE ASYMMETRIC UNIT

 INTRACELL NUCLEAR REPULSION (A.U.)  5.6849334718907E+03

 FRQFRQFRQFRQFRQFRQFRQFRQFRQFRQFRQFRQFRQFRQFRQFRQFRQFRQFRQFRQFRQFRQFRQFRQFRQFRQ

                       FREQUENCY CALCULATION



 ATOMS ISOTOPIC MASS (AMU) FOR FREQUENCY CALCULATION 

 INFORMATION **** INPFREQ **** POINTS FOR NUMERICAL DERIVATIVE         2
 INFORMATION **** INPFREQ **** FREQUENCY CALCULATION RESTART (FORT.94)
 INFORMATION **** INPFREQ ****  ANALYSIS OF THE VIBRATIONAL MODES
    1 SI  27.976930    2 SI  27.976930    3 SI  27.976930    4 SI  27.976930
    5 O   15.994910    6 O   15.994910    7 O   15.994910    8 O   15.994910
    9 O   15.994910   10 O   15.994910   11 O   15.994910   12 O   15.994910
   13 O   15.994910   14 O   15.994910   15 O   15.994910   16 SI  27.976930
   17 SI  27.976930   18 SI  27.976930   19 SI  27.976930   20 O   15.994910
   21 O   15.994910   22 SI  27.976930   23 SI  27.976930   24 O   15.994910
   25 O   15.994910   26 O   15.994910   27 O   15.994910   28 O   15.994910
   29 O   15.994910   30 O   15.994910   31 O   15.994910   32 H    1.007825
   33 H    1.007825

 ****   4 SYMMOPS - TRANSLATORS IN FRACTIONARY UNITS
  V INV                   ROTATION MATRICES                       TRANSLATOR
  1  1  1.00  0.00  0.00  0.00  1.00  0.00  0.00  0.00  1.00    0.00  0.00  0.00
  2  2  1.00  0.00  0.00  0.00 -1.00  0.00  0.00  0.00 -1.00    0.00  0.00  0.00
  3  3  1.00  0.00  0.00  0.00 -1.00  0.00  0.00  0.00  1.00    0.00  0.00  0.00
  4  4  1.00  0.00  0.00  0.00  1.00  0.00  0.00  0.00 -1.00    0.00  0.00  0.00

 GCALCO - MAX INDICES DIRECT LATTICE VECTOR  56  52   0
 NO.OF VECTORS CREATED 2999 STARS  781 RMAX   392.67119

 GEOMETRY FOR WAVE FUNCTION - DIMENSIONALITY OF THE SYSTEM    2
 (NON PERIODIC DIRECTION: LATTICE PARAMETER FORMALLY SET TO 500)
 *******************************************************************************
 LATTICE PARAMETERS (ANGSTROMS AND DEGREES) - BOHR = 0.5291772083 ANGSTROM
 PRIMITIVE CELL
         A              B              C           ALPHA      BETA       GAMMA 
     6.47910000     6.97100000   500.00000000    90.000000  90.000000  90.000000
 *******************************************************************************
 ATOMS IN THE ASYMMETRIC UNIT   13 - ATOMS IN THE UNIT CELL:   33
     ATOM              X/A                 Y/B             Z(ANGSTROM)
 *******************************************************************************
   1 T  14 SI   -3.769401589134E-01  0.000000000000E+00 -3.481813326107E+00
   2 F  14 SI   -3.769401589134E-01  0.000000000000E+00  3.481813326107E+00
   3 T  14 SI    3.548888724823E-03  0.000000000000E+00 -1.607413605696E+00
   4 F  14 SI    3.548888724823E-03  0.000000000000E+00  1.607413605696E+00
   5 T   8 O    -2.344766216933E-01  0.000000000000E+00 -2.137434754515E+00
   6 F   8 O    -2.344766216933E-01  0.000000000000E+00  2.137434754515E+00
   7 T   8 O     3.592425957000E-03  0.000000000000E+00  0.000000000000E+00
   8 T   8 O     4.803369279434E-01  1.927587700119E-01 -3.481225172410E+00
   9 F   8 O     4.803369279434E-01 -1.927587700119E-01  3.481225172410E+00
  10 F   8 O     4.803369279434E-01 -1.927587700119E-01 -3.481225172410E+00
  11 F   8 O     4.803369279434E-01  1.927587700119E-01  3.481225172410E+00
  12 T   8 O     1.224003271353E-01  1.917317378954E-01 -2.153325532968E+00
  13 F   8 O     1.224003271353E-01 -1.917317378954E-01  2.153325532968E+00
  14 F   8 O     1.224003271353E-01 -1.917317378954E-01 -2.153325532968E+00
  15 F   8 O     1.224003271353E-01  1.917317378954E-01  2.153325532968E+00
  16 T  14 SI    2.424053861720E-01  2.693135515242E-01 -3.487481920490E+00
  17 F  14 SI    2.424053861720E-01 -2.693135515242E-01  3.487481920490E+00
  18 F  14 SI    2.424053861720E-01 -2.693135515242E-01 -3.487481920490E+00
  19 F  14 SI    2.424053861720E-01  2.693135515242E-01  3.487481920490E+00
  20 T   8 O     2.434995617864E-01 -5.000000000000E-01 -3.490465161017E+00
  21 F   8 O     2.434995617864E-01 -5.000000000000E-01  3.490465161017E+00
  22 T  14 SI    2.353001868315E-03  0.000000000000E+00 -5.375607269602E+00
  23 F  14 SI    2.353001868315E-03  0.000000000000E+00  5.375607269602E+00
  24 T   8 O    -2.345485213019E-01  0.000000000000E+00 -4.826147232088E+00
  25 F   8 O    -2.345485213019E-01  0.000000000000E+00  4.826147232088E+00
  26 T   8 O    -1.208342207606E-02  0.000000000000E+00 -6.999733314917E+00
  27 F   8 O    -1.208342207606E-02  0.000000000000E+00  6.999733314917E+00
  28 T   8 O     1.245220365180E-01  1.908947562542E-01 -4.827295019811E+00
  29 F   8 O     1.245220365180E-01 -1.908947562542E-01  4.827295019811E+00
  30 F   8 O     1.245220365180E-01 -1.908947562542E-01 -4.827295019811E+00
  31 F   8 O     1.245220365180E-01  1.908947562542E-01  4.827295019811E+00
  32 T   1 H     1.164488632887E-01  0.000000000000E+00 -7.484297989250E+00
  33 F   1 H     1.164488632887E-01  0.000000000000E+00  7.484297989250E+00

 T = ATOM BELONGING TO THE ASYMMETRIC UNIT

 INTRACELL NUCLEAR REPULSION (A.U.)  5.6863519756290E+03

 CARTESIAN COORDINATES - PRIMITIVE CELL
 DIRECT LATTICE VECTORS CARTESIAN COMPONENTS (ANGSTROM)
          X                    Y                    Z
   0.647910000000E+01   0.000000000000E+00   0.000000000000E+00
   0.000000000000E+00   0.697100000000E+01   0.000000000000E+00
   0.000000000000E+00   0.000000000000E+00   0.500000000000E+03

 *******************************************************************************
 *      ATOM          X(ANGSTROM)         Y(ANGSTROM)         Z(ANGSTROM)
 *******************************************************************************
   1    14 SI   -2.442232983616E+00  0.000000000000E+00 -3.481813326107E+00
   2    14 SI   -2.442232983616E+00  0.000000000000E+00  3.481813326107E+00
   3    14 SI    2.299360493700E-02  0.000000000000E+00 -1.607413605696E+00
   4    14 SI    2.299360493700E-02  0.000000000000E+00  1.607413605696E+00
   5     8 O    -1.519197479613E+00  0.000000000000E+00 -2.137434754515E+00
   6     8 O    -1.519197479613E+00  0.000000000000E+00  2.137434754515E+00
   7     8 O     2.327568701800E-02  0.000000000000E+00  0.000000000000E+00
   8     8 O     3.112150989838E+00  1.343721385753E+00 -3.481225172410E+00
   9     8 O     3.112150989838E+00 -1.343721385753E+00  3.481225172410E+00
  10     8 O     3.112150989838E+00 -1.343721385753E+00 -3.481225172410E+00
  11     8 O     3.112150989838E+00  1.343721385753E+00  3.481225172410E+00
  12     8 O     7.930439595420E-01  1.336561944869E+00 -2.153325532968E+00
  13     8 O     7.930439595420E-01 -1.336561944869E+00  2.153325532968E+00
  14     8 O     7.930439595420E-01 -1.336561944869E+00 -2.153325532968E+00
  15     8 O     7.930439595420E-01  1.336561944869E+00  2.153325532968E+00
  16    14 SI    1.570568737547E+00  1.877384767675E+00 -3.487481920490E+00
  17    14 SI    1.570568737547E+00 -1.877384767675E+00  3.487481920490E+00
  18    14 SI    1.570568737547E+00 -1.877384767675E+00 -3.487481920490E+00
  19    14 SI    1.570568737547E+00  1.877384767675E+00  3.487481920490E+00
  20     8 O     1.577658010770E+00  3.485500000000E+00 -3.490465161017E+00
  21     8 O     1.577658010770E+00  3.485500000000E+00  3.490465161017E+00
  22    14 SI    1.524533440500E-02  0.000000000000E+00 -5.375607269602E+00
  23    14 SI    1.524533440500E-02  0.000000000000E+00  5.375607269602E+00
  24     8 O    -1.519663324367E+00  0.000000000000E+00 -4.826147232088E+00
  25     8 O    -1.519663324367E+00  0.000000000000E+00  4.826147232088E+00
  26     8 O    -7.828969997300E-02  0.000000000000E+00 -6.999733314917E+00
  27     8 O    -7.828969997300E-02  0.000000000000E+00  6.999733314917E+00
  28     8 O     8.067907268040E-01  1.330727345848E+00 -4.827295019811E+00
  29     8 O     8.067907268040E-01 -1.330727345848E+00  4.827295019811E+00
  30     8 O     8.067907268040E-01 -1.330727345848E+00 -4.827295019811E+00
  31     8 O     8.067907268040E-01  1.330727345848E+00  4.827295019811E+00
  32     1 H     7.544838301340E-01  0.000000000000E+00 -7.484297989250E+00
  33     1 H     7.544838301340E-01  0.000000000000E+00  7.484297989250E+00

 BASIS SET INPUT - INSERT KEYWORD 'PRINT' TO PRINT BS INFORMATION

 INFORMATION **** INPUTM **** FULL DIRECT SCF (MONO AND BIEL INT) SELECTED
 INFORMATION **** TOLINTEG **** COULOMB AND EXCHANGE SERIES TOLERANCES MODIFIED
 INFORMATION **** POLEORDR **** MAXIMUM POLE ORDER (DEFAULT 4) SET TO         6
 *******************************************************************************
 N. OF ATOMS PER CELL       33  COULOMB OVERLAP TOL         (T1) 10** -6
 NUMBER OF SHELLS          140  COULOMB PENETRATION TOL     (T2) 10** -6
 NUMBER OF AO              484  EXCHANGE OVERLAP TOL        (T3) 10** -6
 N. OF ELECTRONS PER CELL  310  EXCHANGE PSEUDO OVP (F(G))  (T4) 10** -6
 CORE ELECTRONS PER CELL   142  EXCHANGE PSEUDO OVP (P(G))  (T5) 10**-14
 N. OF SYMMETRY OPERATORS    4  POLE ORDER IN MONO ZONE                6
 *******************************************************************************
 TYPE OF CALCULATION :  RESTRICTED CLOSED SHELL
 KOHN-SHAM HAMILTONIAN

 (EXCHANGE)[CORRELATION] FUNCTIONAL:(BECKE)[LEE-YANG-PARR]

 NON-LOCAL WEIGHTING FACTOR (EXCHANGE) =           0.9000
 NON-LOCAL WEIGHTING FACTOR [CORRELATION] =        0.8100

 HYBRID EXCHANGE - PERCENTAGE OF FOCK EXCHANGE    20.0000
 INFORMATION **** TOLDEE **** SCF TOL ON TOTAL ENERGY SET TO        11
 *******************************************************************************
 MAX NUMBER OF SCF CYCLES      50  CONVERGENCE ON DELTAP        10**-15
 WEIGHT OF F(I) IN F(I+1)      30% CONVERGENCE ON ENERGY        10**-11
 EIGENVALUE LEVEL SHIFTING OF  0.600 HARTREE
 LOCKING - FERMI ENERGY ALTERED BY LEVEL SHIFTER
 SHRINK. FACT.(MONKH.)    2  2  1  NUMBER OF K POINTS IN THE IBZ      4
 SHRINKING FACTOR(GILAT NET)    2  NUMBER OF K POINTS(GILAT NET)      4
 *******************************************************************************
 *** K POINTS COORDINATES (OBLIQUE COORDINATES IN UNITS OF IS =  2)
   1-R(  0  0  0)   2-R(  1  0  0)   3-R(  0  1  0)   4-R(  1  1  0)

 DIRECT LATTICE VECTORS COMPON. (A.U.)     RECIP. LATTICE VECTORS COMPON. (A.U.) 
        X            Y            Z              X            Y            Z
   12.2437246    0.0000000    0.0000000      0.5131760    0.0000000    0.0000000
    0.0000000   13.1732809    0.0000000      0.0000000    0.4769643    0.0000000
    0.0000000    0.0000000  944.8630670      0.0000000    0.0000000    0.0066498

 DISK SPACE FOR EIGENVECTORS (FTN 10)     937024 REALS

 SYMMETRY ADAPTION OF THE BLOCH FUNCTIONS ENABLED

 DIMENSIONS  P(G)=  377798 F(G)=   62794 P(G),F(G) (IRR)   55588
 MAX G-VECTOR INDEX FOR 1- AND 2-ELECTRON INTEGRALS  17

 TTTTTTTTTTTTTTTTTTTTTTTTTTTTTT INPUT       TELAPSE        1.24 TCPU        0.03

 NEIGHBORS OF THE NON-EQUIVALENT ATOMS

 N = NUMBER OF NEIGHBORS AT DISTANCE R
    ATOM  N     R/ANG      R/AU   NEIGHBORS (ATOM LABELS AND CELL INDICES)
   1 SI   1     1.6305     3.0811  24 O    0 0 0
   1 SI   1     1.6308     3.0817   5 O    0 0 0
   1 SI   2     1.6312     3.0824   8 O   -1 0 0  10 O   -1 0 0
   1 SI   1     3.0969     5.8523   3 SI   0 0 0
   1 SI   2     3.0996     5.8573  16 SI  -1 0 0  18 SI  -1 0 0
   1 SI   1     3.1025     5.8629  22 SI   0 0 0

   3 SI   1     1.6074     3.0376   7 O    0 0 0
   3 SI   1     1.6307     3.0816   5 O    0 0 0
   3 SI   2     1.6363     3.0921  12 O    0 0 0  14 O    0 0 0
   3 SI   2     3.0748     5.8105  16 SI   0 0 0  18 SI   0 0 0
   3 SI   1     3.0969     5.8523   1 SI   0 0 0
   3 SI   1     3.2148     6.0751   4 SI   0 0 0

   5 O    1     1.6307     3.0816   3 SI   0 0 0
   5 O    1     1.6308     3.0817   1 SI   0 0 0
   5 O    1     2.6359     4.9811   7 O    0 0 0
   5 O    2     2.6506     5.0089   8 O   -1 0 0  10 O   -1 0 0
   5 O    2     2.6708     5.0471  12 O    0 0 0  14 O    0 0 0
   5 O    1     2.6887     5.0809  24 O    0 0 0

   7 O    2     1.6074     3.0376   3 SI   0 0 0   4 SI   0 0 0
   7 O    2     2.6359     4.9811   5 O    0 0 0   6 O    0 0 0
   7 O    4     2.6487     5.0054  12 O    0 0 0  13 O    0 0 0  14 O    0 0 0
                                   15 O    0 0 0
   7 O    4     4.2522     8.0355  16 SI   0 0 0  17 SI   0 0 0  18 SI   0 0 0
                                   19 SI   0 0 0
   7 O    2     4.2664     8.0622   1 SI   0 0 0   2 SI   0 0 0
   7 O    4     4.8441     9.1541   8 O    0 0 0   9 O    0 0 0  10 O    0 0 0
                                   11 O    0 0 0

   8 O    1     1.6312     3.0824   1 SI   1 0 0
   8 O    1     1.6314     3.0828  16 SI   0 0 0
   8 O    1     2.6348     4.9790  20 O    0 0 0
   8 O    1     2.6506     5.0089   5 O    1 0 0
   8 O    1     2.6508     5.0093  24 O    1 0 0
   8 O    1     2.6696     5.0448  28 O    0 0 0

  12 O    1     1.6362     3.0919  16 SI   0 0 0
  12 O    1     1.6363     3.0921   3 SI   0 0 0
  12 O    1     2.6487     5.0054   7 O    0 0 0
  12 O    1     2.6498     5.0074  20 O    0 0 0
  12 O    1     2.6708     5.0471   5 O    0 0 0
  12 O    1     2.6724     5.0501   8 O    0 0 0

  16 SI   1     1.6081     3.0389  20 O    0 0 0
  16 SI   1     1.6314     3.0828   8 O    0 0 0
  16 SI   1     1.6362     3.0919  12 O    0 0 0
  16 SI   1     1.6362     3.0921  28 O    0 0 0
  16 SI   1     3.0748     5.8105   3 SI   0 0 0
  16 SI   1     3.0836     5.8272  22 SI   0 0 0

  20 O    2     1.6081     3.0389  16 SI   0 0 0  18 SI   0 1 0
  20 O    2     2.6348     4.9790   8 O    0 0 0  10 O    0 1 0
  20 O    2     2.6498     5.0074  12 O    0 0 0  14 O    0 1 0
  20 O    2     2.6504     5.0085  28 O    0 0 0  30 O    0 1 0
  20 O    2     4.2558     8.0422   3 SI   0 0 0   3 SI   0 1 0
  20 O    2     4.2595     8.0493  22 SI   0 0 0  22 SI   0 1 0

  22 SI   1     1.6268     3.0742  26 O    0 0 0
  22 SI   1     1.6303     3.0808  24 O    0 0 0
  22 SI   2     1.6426     3.1040  28 O    0 0 0  30 O    0 0 0
  22 SI   1     2.2345     4.2226  32 H    0 0 0
  22 SI   2     3.0836     5.8272  16 SI   0 0 0  18 SI   0 0 0
  22 SI   1     3.1025     5.8629   1 SI   0 0 0

  24 O    1     1.6303     3.0808  22 SI   0 0 0
  24 O    1     1.6305     3.0811   1 SI   0 0 0
  24 O    1     2.6081     4.9285  26 O    0 0 0
  24 O    2     2.6508     5.0093   8 O   -1 0 0  10 O   -1 0 0
  24 O    2     2.6802     5.0648  28 O    0 0 0  30 O    0 0 0
  24 O    1     2.6887     5.0809   5 O    0 0 0

  26 O    1     0.9635     1.8207  32 H    0 0 0
  26 O    1     1.6268     3.0742  22 SI   0 0 0
  26 O    1     2.6081     4.9285  24 O    0 0 0
  26 O    2     2.6970     5.0965  28 O    0 0 0  30 O    0 0 0
  26 O    1     4.2384     8.0094   1 SI   0 0 0
  26 O    2     4.3104     8.1454  16 SI   0 0 0  18 SI   0 0 0

  28 O    1     1.6362     3.0921  16 SI   0 0 0
  28 O    1     1.6426     3.1040  22 SI   0 0 0
  28 O    1     2.6504     5.0085  20 O    0 0 0
  28 O    1     2.6615     5.0294  30 O    0 0 0
  28 O    1     2.6696     5.0448   8 O    0 0 0
  28 O    1     2.6740     5.0531  12 O    0 0 0

  32 H    1     0.9635     1.8207  26 O    0 0 0
  32 H    1     2.2345     4.2226  22 SI   0 0 0
  32 H    2     2.9721     5.6164  28 O    0 0 0  30 O    0 0 0
  32 H    1     3.4982     6.6107  24 O    0 0 0
  32 H    2     4.4906     8.4859  16 SI   0 0 0  18 SI   0 0 0
  32 H    2     4.8362     9.1391   8 O    0 0 0  10 O    0 0 0


 SYMMETRY ALLOWED INTERNAL DEGREE(S) OF FREEDOM:  28
 TTTTTTTTTTTTTTTTTTTTTTTTTTTTTT SYMM        TELAPSE        1.40 TCPU        0.08

 *******************************************************************************
 *                                                                             *
 *                                                                             *
 *         FFFFF  RRRR   EEEE   EEE   U   U  EEEE  N   N   CCC  Y   Y          *
 *         F      R   R  E     E   E  U   U  E     NN  N  C      Y Y           *
 *         FFF    RRRR   EEEE  E   E  U   U  EEEE  N N N  C       Y            *
 *         F      R   R  E     E  EE  U   U  E     N  NN  C       Y            *
 *         F      R   R  EEEE   EE E   UUU   EEEE  N   N   CCC    Y            *
 *                                                                             *
 *                                                                             *
 * CALCULATION OF PHONON FREQUENCIES AT THE GAMMA POINT.                       *
 *                                                                             *
 * SYMMETRY IS EXPLOITED TO BUILD THE TOTAL HESSIAN MATRIX.                    *
 * (F. PASCALE PHD THESIS TURIN-PARIS 2002)                                    *
 *                                                                             *
 *******************************************************************************


 NUMBER OF POINTS FOR THE NUMERICAL GRADIENT     2
 NUMBER OF IRREDUCIBLE ATOMS                    13
 NUMBER OF SCF+GRADIENT CALCULATIONS            73

  ATOM  SYMOP  ORDER
    1      2      2
    3      2      2
    5      2      2
    7      4      2
    8      1      1
   12      1      1
   16      1      1
   20      2      2
   22      2      2
   24      2      2
   26      2      2
   28      1      1
   32      2      2

 ATOM  : IRREDUCIBLE ATOM
 SYMOP : NUMBER OF SYMMETRY OPERATORS THAT DOESN'T MOVE THE IRREDUCIBLE ATOM
 ORDER : MAXIMUM ORDER AMONG THE OPERATORS OF THE IRREDUCIBLE ATOM

 *******************************************************************************


 GCALCO - MAX INDICES DIRECT LATTICE VECTOR  56  52   0
 NO.OF VECTORS CREATED 2999 STARS  781 RMAX   392.67119

 DIMENSIONS  P(G)=  377798 F(G)=   62794 P(G),F(G) (IRR)  191529
 MAX G-VECTOR INDEX FOR 1- AND 2-ELECTRON INTEGRALS  17

 TTTTTTTTTTTTTTTTTTTTTTTTTTTTTT INPUT       TELAPSE        1.50 TCPU        0.14

 NEIGHBORS OF THE NON-EQUIVALENT ATOMS

 N = NUMBER OF NEIGHBORS AT DISTANCE R
    ATOM  N     R/ANG      R/AU   NEIGHBORS (ATOM LABELS AND CELL INDICES)
   1 SI   1     1.6305     3.0811  24 O    0 0 0
   1 SI   1     1.6308     3.0817   5 O    0 0 0
   1 SI   2     1.6312     3.0824   8 O   -1 0 0  10 O   -1 0 0
   1 SI   1     3.0969     5.8523   3 SI   0 0 0
   1 SI   2     3.0996     5.8573  16 SI  -1 0 0  18 SI  -1 0 0
   1 SI   1     3.1025     5.8629  22 SI   0 0 0

   2 SI   1     1.6305     3.0811  25 O    0 0 0
   2 SI   1     1.6308     3.0817   6 O    0 0 0
   2 SI   2     1.6312     3.0824   9 O   -1 0 0  11 O   -1 0 0
   2 SI   1     3.0969     5.8523   4 SI   0 0 0
   2 SI   2     3.0996     5.8573  17 SI  -1 0 0  19 SI  -1 0 0
   2 SI   1     3.1025     5.8629  23 SI   0 0 0

   3 SI   1     1.6074     3.0376   7 O    0 0 0
   3 SI   1     1.6307     3.0816   5 O    0 0 0
   3 SI   2     1.6363     3.0921  12 O    0 0 0  14 O    0 0 0
   3 SI   2     3.0748     5.8105  16 SI   0 0 0  18 SI   0 0 0
   3 SI   1     3.0969     5.8523   1 SI   0 0 0
   3 SI   1     3.2148     6.0751   4 SI   0 0 0

   4 SI   1     1.6074     3.0376   7 O    0 0 0
   4 SI   1     1.6307     3.0816   6 O    0 0 0
   4 SI   2     1.6363     3.0921  13 O    0 0 0  15 O    0 0 0
   4 SI   2     3.0748     5.8105  17 SI   0 0 0  19 SI   0 0 0
   4 SI   1     3.0969     5.8523   2 SI   0 0 0
   4 SI   1     3.2148     6.0751   3 SI   0 0 0

   5 O    1     1.6307     3.0816   3 SI   0 0 0
   5 O    1     1.6308     3.0817   1 SI   0 0 0
   5 O    1     2.6359     4.9811   7 O    0 0 0
   5 O    2     2.6506     5.0089   8 O   -1 0 0  10 O   -1 0 0
   5 O    2     2.6708     5.0471  12 O    0 0 0  14 O    0 0 0
   5 O    1     2.6887     5.0809  24 O    0 0 0

   6 O    1     1.6307     3.0816   4 SI   0 0 0
   6 O    1     1.6308     3.0817   2 SI   0 0 0
   6 O    1     2.6359     4.9811   7 O    0 0 0
   6 O    2     2.6506     5.0089   9 O   -1 0 0  11 O   -1 0 0
   6 O    2     2.6708     5.0471  13 O    0 0 0  15 O    0 0 0
   6 O    1     2.6887     5.0809  25 O    0 0 0

   7 O    2     1.6074     3.0376   3 SI   0 0 0   4 SI   0 0 0
   7 O    2     2.6359     4.9811   5 O    0 0 0   6 O    0 0 0
   7 O    4     2.6487     5.0054  12 O    0 0 0  13 O    0 0 0  14 O    0 0 0
                                   15 O    0 0 0
   7 O    4     4.2522     8.0355  16 SI   0 0 0  17 SI   0 0 0  18 SI   0 0 0
                                   19 SI   0 0 0
   7 O    2     4.2664     8.0622   1 SI   0 0 0   2 SI   0 0 0
   7 O    4     4.8441     9.1541   8 O    0 0 0   9 O    0 0 0  10 O    0 0 0
                                   11 O    0 0 0

   8 O    1     1.6312     3.0824   1 SI   1 0 0
   8 O    1     1.6314     3.0828  16 SI   0 0 0
   8 O    1     2.6348     4.9790  20 O    0 0 0
   8 O    1     2.6506     5.0089   5 O    1 0 0
   8 O    1     2.6508     5.0093  24 O    1 0 0
   8 O    1     2.6696     5.0448  28 O    0 0 0

   9 O    1     1.6312     3.0824   2 SI   1 0 0
   9 O    1     1.6314     3.0828  17 SI   0 0 0
   9 O    1     2.6348     4.9790  21 O    0-1 0
   9 O    1     2.6506     5.0089   6 O    1 0 0
   9 O    1     2.6508     5.0093  25 O    1 0 0
   9 O    1     2.6696     5.0448  29 O    0 0 0

  10 O    1     1.6312     3.0824   1 SI   1 0 0
  10 O    1     1.6314     3.0828  18 SI   0 0 0
  10 O    1     2.6348     4.9790  20 O    0-1 0
  10 O    1     2.6506     5.0089   5 O    1 0 0
  10 O    1     2.6508     5.0093  24 O    1 0 0
  10 O    1     2.6696     5.0448  30 O    0 0 0

  11 O    1     1.6312     3.0824   2 SI   1 0 0
  11 O    1     1.6314     3.0828  19 SI   0 0 0
  11 O    1     2.6348     4.9790  21 O    0 0 0
  11 O    1     2.6506     5.0089   6 O    1 0 0
  11 O    1     2.6508     5.0093  25 O    1 0 0
  11 O    1     2.6696     5.0448  31 O    0 0 0

  12 O    1     1.6362     3.0919  16 SI   0 0 0
  12 O    1     1.6363     3.0921   3 SI   0 0 0
  12 O    1     2.6487     5.0054   7 O    0 0 0
  12 O    1     2.6498     5.0074  20 O    0 0 0
  12 O    1     2.6708     5.0471   5 O    0 0 0
  12 O    1     2.6724     5.0501   8 O    0 0 0

  13 O    1     1.6362     3.0919  17 SI   0 0 0
  13 O    1     1.6363     3.0921   4 SI   0 0 0
  13 O    1     2.6487     5.0054   7 O    0 0 0
  13 O    1     2.6498     5.0074  21 O    0-1 0
  13 O    1     2.6708     5.0471   6 O    0 0 0
  13 O    1     2.6724     5.0501   9 O    0 0 0

  14 O    1     1.6362     3.0919  18 SI   0 0 0
  14 O    1     1.6363     3.0921   3 SI   0 0 0
  14 O    1     2.6487     5.0054   7 O    0 0 0
  14 O    1     2.6498     5.0074  20 O    0-1 0
  14 O    1     2.6708     5.0471   5 O    0 0 0
  14 O    1     2.6724     5.0501  10 O    0 0 0

  15 O    1     1.6362     3.0919  19 SI   0 0 0
  15 O    1     1.6363     3.0921   4 SI   0 0 0
  15 O    1     2.6487     5.0054   7 O    0 0 0
  15 O    1     2.6498     5.0074  21 O    0 0 0
  15 O    1     2.6708     5.0471   6 O    0 0 0
  15 O    1     2.6724     5.0501  11 O    0 0 0

  16 SI   1     1.6081     3.0389  20 O    0 0 0
  16 SI   1     1.6314     3.0828   8 O    0 0 0
  16 SI   1     1.6362     3.0919  12 O    0 0 0
  16 SI   1     1.6362     3.0921  28 O    0 0 0
  16 SI   1     3.0748     5.8105   3 SI   0 0 0
  16 SI   1     3.0836     5.8272  22 SI   0 0 0

  17 SI   1     1.6081     3.0389  21 O    0-1 0
  17 SI   1     1.6314     3.0828   9 O    0 0 0
  17 SI   1     1.6362     3.0919  13 O    0 0 0
  17 SI   1     1.6362     3.0921  29 O    0 0 0
  17 SI   1     3.0748     5.8105   4 SI   0 0 0
  17 SI   1     3.0836     5.8272  23 SI   0 0 0

  18 SI   1     1.6081     3.0389  20 O    0-1 0
  18 SI   1     1.6314     3.0828  10 O    0 0 0
  18 SI   1     1.6362     3.0919  14 O    0 0 0
  18 SI   1     1.6362     3.0921  30 O    0 0 0
  18 SI   1     3.0748     5.8105   3 SI   0 0 0
  18 SI   1     3.0836     5.8272  22 SI   0 0 0

  19 SI   1     1.6081     3.0389  21 O    0 0 0
  19 SI   1     1.6314     3.0828  11 O    0 0 0
  19 SI   1     1.6362     3.0919  15 O    0 0 0
  19 SI   1     1.6362     3.0921  31 O    0 0 0
  19 SI   1     3.0748     5.8105   4 SI   0 0 0
  19 SI   1     3.0836     5.8272  23 SI   0 0 0

  20 O    2     1.6081     3.0389  16 SI   0 0 0  18 SI   0 1 0
  20 O    2     2.6348     4.9790   8 O    0 0 0  10 O    0 1 0
  20 O    2     2.6498     5.0074  12 O    0 0 0  14 O    0 1 0
  20 O    2     2.6504     5.0085  28 O    0 0 0  30 O    0 1 0
  20 O    2     4.2558     8.0422   3 SI   0 0 0   3 SI   0 1 0
  20 O    2     4.2595     8.0493  22 SI   0 0 0  22 SI   0 1 0

  21 O    2     1.6081     3.0389  17 SI   0 1 0  19 SI   0 0 0
  21 O    2     2.6348     4.9790   9 O    0 1 0  11 O    0 0 0
  21 O    2     2.6498     5.0074  13 O    0 1 0  15 O    0 0 0
  21 O    2     2.6504     5.0085  29 O    0 1 0  31 O    0 0 0
  21 O    2     4.2558     8.0422   4 SI   0 0 0   4 SI   0 1 0
  21 O    2     4.2595     8.0493  23 SI   0 0 0  23 SI   0 1 0

  22 SI   1     1.6268     3.0742  26 O    0 0 0
  22 SI   1     1.6303     3.0808  24 O    0 0 0
  22 SI   2     1.6426     3.1040  28 O    0 0 0  30 O    0 0 0
  22 SI   1     2.2345     4.2226  32 H    0 0 0
  22 SI   2     3.0836     5.8272  16 SI   0 0 0  18 SI   0 0 0
  22 SI   1     3.1025     5.8629   1 SI   0 0 0

  23 SI   1     1.6268     3.0742  27 O    0 0 0
  23 SI   1     1.6303     3.0808  25 O    0 0 0
  23 SI   2     1.6426     3.1040  29 O    0 0 0  31 O    0 0 0
  23 SI   1     2.2345     4.2226  33 H    0 0 0
  23 SI   2     3.0836     5.8272  17 SI   0 0 0  19 SI   0 0 0
  23 SI   1     3.1025     5.8629   2 SI   0 0 0

  24 O    1     1.6303     3.0808  22 SI   0 0 0
  24 O    1     1.6305     3.0811   1 SI   0 0 0
  24 O    1     2.6081     4.9285  26 O    0 0 0
  24 O    2     2.6508     5.0093   8 O   -1 0 0  10 O   -1 0 0
  24 O    2     2.6802     5.0648  28 O    0 0 0  30 O    0 0 0
  24 O    1     2.6887     5.0809   5 O    0 0 0

  25 O    1     1.6303     3.0808  23 SI   0 0 0
  25 O    1     1.6305     3.0811   2 SI   0 0 0
  25 O    1     2.6081     4.9285  27 O    0 0 0
  25 O    2     2.6508     5.0093   9 O   -1 0 0  11 O   -1 0 0
  25 O    2     2.6802     5.0648  29 O    0 0 0  31 O    0 0 0
  25 O    1     2.6887     5.0809   6 O    0 0 0

  26 O    1     0.9635     1.8207  32 H    0 0 0
  26 O    1     1.6268     3.0742  22 SI   0 0 0
  26 O    1     2.6081     4.9285  24 O    0 0 0
  26 O    2     2.6970     5.0965  28 O    0 0 0  30 O    0 0 0
  26 O    1     4.2384     8.0094   1 SI   0 0 0
  26 O    2     4.3104     8.1454  16 SI   0 0 0  18 SI   0 0 0

  27 O    1     0.9635     1.8207  33 H    0 0 0
  27 O    1     1.6268     3.0742  23 SI   0 0 0
  27 O    1     2.6081     4.9285  25 O    0 0 0
  27 O    2     2.6970     5.0965  29 O    0 0 0  31 O    0 0 0
  27 O    1     4.2384     8.0094   2 SI   0 0 0
  27 O    2     4.3104     8.1454  17 SI   0 0 0  19 SI   0 0 0

  28 O    1     1.6362     3.0921  16 SI   0 0 0
  28 O    1     1.6426     3.1040  22 SI   0 0 0
  28 O    1     2.6504     5.0085  20 O    0 0 0
  28 O    1     2.6615     5.0294  30 O    0 0 0
  28 O    1     2.6696     5.0448   8 O    0 0 0
  28 O    1     2.6740     5.0531  12 O    0 0 0

  29 O    1     1.6362     3.0921  17 SI   0 0 0
  29 O    1     1.6426     3.1040  23 SI   0 0 0
  29 O    1     2.6504     5.0085  21 O    0-1 0
  29 O    1     2.6615     5.0294  31 O    0 0 0
  29 O    1     2.6696     5.0448   9 O    0 0 0
  29 O    1     2.6740     5.0531  13 O    0 0 0

  30 O    1     1.6362     3.0921  18 SI   0 0 0
  30 O    1     1.6426     3.1040  22 SI   0 0 0
  30 O    1     2.6504     5.0085  20 O    0-1 0
  30 O    1     2.6615     5.0294  28 O    0 0 0
  30 O    1     2.6696     5.0448  10 O    0 0 0
  30 O    1     2.6740     5.0531  14 O    0 0 0

  31 O    1     1.6362     3.0921  19 SI   0 0 0
  31 O    1     1.6426     3.1040  23 SI   0 0 0
  31 O    1     2.6504     5.0085  21 O    0 0 0
  31 O    1     2.6615     5.0294  29 O    0 0 0
  31 O    1     2.6696     5.0448  11 O    0 0 0
  31 O    1     2.6740     5.0531  15 O    0 0 0

  32 H    1     0.9635     1.8207  26 O    0 0 0
  32 H    1     2.2345     4.2226  22 SI   0 0 0
  32 H    2     2.9721     5.6164  28 O    0 0 0  30 O    0 0 0
  32 H    1     3.4982     6.6107  24 O    0 0 0
  32 H    2     4.4906     8.4859  16 SI   0 0 0  18 SI   0 0 0
  32 H    2     4.8362     9.1391   8 O    0 0 0  10 O    0 0 0

  33 H    1     0.9635     1.8207  27 O    0 0 0
  33 H    1     2.2345     4.2226  23 SI   0 0 0
  33 H    2     2.9721     5.6164  29 O    0 0 0  31 O    0 0 0
  33 H    1     3.4982     6.6107  25 O    0 0 0
  33 H    2     4.4906     8.4859  17 SI   0 0 0  19 SI   0 0 0
  33 H    2     4.8362     9.1391   9 O    0 0 0  11 O    0 0 0

 TTTTTTTTTTTTTTTTTTTTTTTTTTTTTT SYMM        TELAPSE        1.51 TCPU        0.14

 ***** NEW REFERENCE GEOMETRY *****

         THE FIRST POINT IS RESTORED FROM THE UNIT94


 RESTART FROM  AN INCOMPLETE HESSIAN MATRIX


 HHHHHHHHHHHHHHHHHHHHHHHHHHHHHHHHHHHHHHHHHHHHHHHHHHHHHHHHHHHHHHHHHHHHHHHHHHHHHHH
                   FORCE CONSTANT MATRIX - NUMERICAL ESTIMATE
 HHHHHHHHHHHHHHHHHHHHHHHHHHHHHHHHHHHHHHHHHHHHHHHHHHHHHHHHHHHHHHHHHHHHHHHHHHHHHHH
 (DE: ENERGY DIFFERENCE WITH RESPECT TO THE CENTRAL POINT)
 DE IS EXPECTED TO BE POSITIVE FOR ALL DISPLACEMENTS

   ATOM          STEP              ENERGY(AU)        N.CYC      DE
    1 SI DX       1.8897E-03  RESTORED FROM A PREV. HESS. MATRIX
    1 SI DX       1.8897E-03  RESTORED FROM A PREV. HESS. MATRIX
    1 SI DY       1.8897E-03  RESTORED FROM A PREV. HESS. MATRIX
    1 SI DY       1.8897E-03  RESTORED FROM A PREV. HESS. MATRIX
    1 SI DZ       1.8897E-03  RESTORED FROM A PREV. HESS. MATRIX
    1 SI DZ       1.8897E-03  RESTORED FROM A PREV. HESS. MATRIX
    3 SI DX       1.8897E-03  RESTORED FROM A PREV. HESS. MATRIX
    3 SI DX       1.8897E-03  RESTORED FROM A PREV. HESS. MATRIX
    3 SI DY       1.8897E-03  RESTORED FROM A PREV. HESS. MATRIX
    3 SI DY       1.8897E-03  RESTORED FROM A PREV. HESS. MATRIX
    3 SI DZ       1.8897E-03  RESTORED FROM A PREV. HESS. MATRIX
    3 SI DZ       1.8897E-03  RESTORED FROM A PREV. HESS. MATRIX
    5 O  DX       1.8897E-03  RESTORED FROM A PREV. HESS. MATRIX
    5 O  DX       1.8897E-03  RESTORED FROM A PREV. HESS. MATRIX
    5 O  DY       1.8897E-03  RESTORED FROM A PREV. HESS. MATRIX
    5 O  DY       1.8897E-03  RESTORED FROM A PREV. HESS. MATRIX
    5 O  DZ       1.8897E-03  RESTORED FROM A PREV. HESS. MATRIX
    5 O  DZ       1.8897E-03  RESTORED FROM A PREV. HESS. MATRIX
    7 O                       GENERATED BY TRANSLATIONAL INVARIANCE
    8 O  DX       1.8897E-03  RESTORED FROM A PREV. HESS. MATRIX
    8 O  DX       1.8897E-03  RESTORED FROM A PREV. HESS. MATRIX
    8 O  DY       1.8897E-03  RESTORED FROM A PREV. HESS. MATRIX
    8 O  DY       1.8897E-03  RESTORED FROM A PREV. HESS. MATRIX
    8 O  DZ       1.8897E-03  RESTORED FROM A PREV. HESS. MATRIX
    8 O  DZ       1.8897E-03  RESTORED FROM A PREV. HESS. MATRIX
   12 O  DX       1.8897E-03  RESTORED FROM A PREV. HESS. MATRIX
   12 O  DX       1.8897E-03  RESTORED FROM A PREV. HESS. MATRIX
   12 O  DY       1.8897E-03  RESTORED FROM A PREV. HESS. MATRIX
   12 O  DY       1.8897E-03  RESTORED FROM A PREV. HESS. MATRIX
   12 O  DZ       1.8897E-03  RESTORED FROM A PREV. HESS. MATRIX
   12 O  DZ       1.8897E-03  RESTORED FROM A PREV. HESS. MATRIX
   16 SI DX       1.8897E-03  RESTORED FROM A PREV. HESS. MATRIX
   16 SI DX       1.8897E-03  RESTORED FROM A PREV. HESS. MATRIX
   16 SI DY       1.8897E-03  RESTORED FROM A PREV. HESS. MATRIX
   16 SI DY       1.8897E-03  RESTORED FROM A PREV. HESS. MATRIX
   16 SI DZ       1.8897E-03  RESTORED FROM A PREV. HESS. MATRIX
   16 SI DZ       1.8897E-03  RESTORED FROM A PREV. HESS. MATRIX
   20 O  DX       1.8897E-03  RESTORED FROM A PREV. HESS. MATRIX
   20 O  DX       1.8897E-03  RESTORED FROM A PREV. HESS. MATRIX
   20 O  DY       1.8897E-03  RESTORED FROM A PREV. HESS. MATRIX
   20 O  DY       1.8897E-03  RESTORED FROM A PREV. HESS. MATRIX
   20 O  DZ       1.8897E-03  RESTORED FROM A PREV. HESS. MATRIX
   20 O  DZ       1.8897E-03  RESTORED FROM A PREV. HESS. MATRIX
   22 SI DX       1.8897E-03  RESTORED FROM A PREV. HESS. MATRIX
   22 SI DX       1.8897E-03  RESTORED FROM A PREV. HESS. MATRIX
   22 SI DY       1.8897E-03  RESTORED FROM A PREV. HESS. MATRIX
   22 SI DY       1.8897E-03  RESTORED FROM A PREV. HESS. MATRIX
   22 SI DZ       1.8897E-03  RESTORED FROM A PREV. HESS. MATRIX
   22 SI DZ       1.8897E-03  RESTORED FROM A PREV. HESS. MATRIX
   24 O  DX       1.8897E-03  RESTORED FROM A PREV. HESS. MATRIX
   24 O  DX       1.8897E-03  RESTORED FROM A PREV. HESS. MATRIX
   24 O  DY       1.8897E-03  RESTORED FROM A PREV. HESS. MATRIX
   24 O  DY       1.8897E-03  RESTORED FROM A PREV. HESS. MATRIX
   24 O  DZ       1.8897E-03  RESTORED FROM A PREV. HESS. MATRIX
   24 O  DZ       1.8897E-03  RESTORED FROM A PREV. HESS. MATRIX
   26 O  DX       1.8897E-03  RESTORED FROM A PREV. HESS. MATRIX
   26 O  DX       1.8897E-03  RESTORED FROM A PREV. HESS. MATRIX
   26 O  DY       1.8897E-03  RESTORED FROM A PREV. HESS. MATRIX
   26 O  DY       1.8897E-03  RESTORED FROM A PREV. HESS. MATRIX
   26 O  DZ       1.8897E-03  RESTORED FROM A PREV. HESS. MATRIX
   26 O  DZ       1.8897E-03  RESTORED FROM A PREV. HESS. MATRIX
   28 O  DX       1.8897E-03  RESTORED FROM A PREV. HESS. MATRIX
   28 O  DX       1.8897E-03  RESTORED FROM A PREV. HESS. MATRIX
   28 O  DY       1.8897E-03  RESTORED FROM A PREV. HESS. MATRIX
   28 O  DY       1.8897E-03  RESTORED FROM A PREV. HESS. MATRIX
   28 O  DZ       1.8897E-03  RESTORED FROM A PREV. HESS. MATRIX
   28 O  DZ       1.8897E-03  RESTORED FROM A PREV. HESS. MATRIX
   32 H  DX       1.8897E-03  RESTORED FROM A PREV. HESS. MATRIX
   32 H  DX       1.8897E-03  RESTORED FROM A PREV. HESS. MATRIX
   32 H  DY       1.8897E-03  RESTORED FROM A PREV. HESS. MATRIX
   32 H  DY       1.8897E-03  RESTORED FROM A PREV. HESS. MATRIX
   32 H  DZ       1.8897E-03  RESTORED FROM A PREV. HESS. MATRIX
   32 H  DZ       1.8897E-03  RESTORED FROM A PREV. HESS. MATRIX

 GCALCO - MAX INDICES DIRECT LATTICE VECTOR  56  52   0
 NO.OF VECTORS CREATED 2999 STARS  781 RMAX   392.67119

 DIMENSIONS  P(G)=  377798 F(G)=   62794 P(G),F(G) (IRR)   55588
 MAX G-VECTOR INDEX FOR 1- AND 2-ELECTRON INTEGRALS  17

 TTTTTTTTTTTTTTTTTTTTTTTTTTTTTT INPUT       TELAPSE        1.70 TCPU        0.21

 NEIGHBORS OF THE NON-EQUIVALENT ATOMS

 N = NUMBER OF NEIGHBORS AT DISTANCE R
    ATOM  N     R/ANG      R/AU   NEIGHBORS (ATOM LABELS AND CELL INDICES)
   1 SI   1     1.6305     3.0811  24 O    0 0 0
   1 SI   1     1.6308     3.0817   5 O    0 0 0
   1 SI   2     1.6312     3.0824   8 O   -1 0 0  10 O   -1 0 0
   1 SI   1     3.0969     5.8523   3 SI   0 0 0
   1 SI   2     3.0996     5.8573  16 SI  -1 0 0  18 SI  -1 0 0
   1 SI   1     3.1025     5.8629  22 SI   0 0 0

   3 SI   1     1.6074     3.0376   7 O    0 0 0
   3 SI   1     1.6307     3.0816   5 O    0 0 0
   3 SI   2     1.6363     3.0921  12 O    0 0 0  14 O    0 0 0
   3 SI   2     3.0748     5.8105  16 SI   0 0 0  18 SI   0 0 0
   3 SI   1     3.0969     5.8523   1 SI   0 0 0
   3 SI   1     3.2148     6.0751   4 SI   0 0 0

   5 O    1     1.6307     3.0816   3 SI   0 0 0
   5 O    1     1.6308     3.0817   1 SI   0 0 0
   5 O    1     2.6359     4.9811   7 O    0 0 0
   5 O    2     2.6506     5.0089   8 O   -1 0 0  10 O   -1 0 0
   5 O    2     2.6708     5.0471  12 O    0 0 0  14 O    0 0 0
   5 O    1     2.6887     5.0809  24 O    0 0 0

   7 O    2     1.6074     3.0376   3 SI   0 0 0   4 SI   0 0 0
   7 O    2     2.6359     4.9811   5 O    0 0 0   6 O    0 0 0
   7 O    4     2.6487     5.0054  12 O    0 0 0  13 O    0 0 0  14 O    0 0 0
                                   15 O    0 0 0
   7 O    4     4.2522     8.0355  16 SI   0 0 0  17 SI   0 0 0  18 SI   0 0 0
                                   19 SI   0 0 0
   7 O    2     4.2664     8.0622   1 SI   0 0 0   2 SI   0 0 0
   7 O    4     4.8441     9.1541   8 O    0 0 0   9 O    0 0 0  10 O    0 0 0
                                   11 O    0 0 0

   8 O    1     1.6312     3.0824   1 SI   1 0 0
   8 O    1     1.6314     3.0828  16 SI   0 0 0
   8 O    1     2.6348     4.9790  20 O    0 0 0
   8 O    1     2.6506     5.0089   5 O    1 0 0
   8 O    1     2.6508     5.0093  24 O    1 0 0
   8 O    1     2.6696     5.0448  28 O    0 0 0

  12 O    1     1.6362     3.0919  16 SI   0 0 0
  12 O    1     1.6363     3.0921   3 SI   0 0 0
  12 O    1     2.6487     5.0054   7 O    0 0 0
  12 O    1     2.6498     5.0074  20 O    0 0 0
  12 O    1     2.6708     5.0471   5 O    0 0 0
  12 O    1     2.6724     5.0501   8 O    0 0 0

  16 SI   1     1.6081     3.0389  20 O    0 0 0
  16 SI   1     1.6314     3.0828   8 O    0 0 0
  16 SI   1     1.6362     3.0919  12 O    0 0 0
  16 SI   1     1.6362     3.0921  28 O    0 0 0
  16 SI   1     3.0748     5.8105   3 SI   0 0 0
  16 SI   1     3.0836     5.8272  22 SI   0 0 0

  20 O    2     1.6081     3.0389  16 SI   0 0 0  18 SI   0 1 0
  20 O    2     2.6348     4.9790   8 O    0 0 0  10 O    0 1 0
  20 O    2     2.6498     5.0074  12 O    0 0 0  14 O    0 1 0
  20 O    2     2.6504     5.0085  28 O    0 0 0  30 O    0 1 0
  20 O    2     4.2558     8.0422   3 SI   0 0 0   3 SI   0 1 0
  20 O    2     4.2595     8.0493  22 SI   0 0 0  22 SI   0 1 0

  22 SI   1     1.6268     3.0742  26 O    0 0 0
  22 SI   1     1.6303     3.0808  24 O    0 0 0
  22 SI   2     1.6426     3.1040  28 O    0 0 0  30 O    0 0 0
  22 SI   1     2.2345     4.2226  32 H    0 0 0
  22 SI   2     3.0836     5.8272  16 SI   0 0 0  18 SI   0 0 0
  22 SI   1     3.1025     5.8629   1 SI   0 0 0

  24 O    1     1.6303     3.0808  22 SI   0 0 0
  24 O    1     1.6305     3.0811   1 SI   0 0 0
  24 O    1     2.6081     4.9285  26 O    0 0 0
  24 O    2     2.6508     5.0093   8 O   -1 0 0  10 O   -1 0 0
  24 O    2     2.6802     5.0648  28 O    0 0 0  30 O    0 0 0
  24 O    1     2.6887     5.0809   5 O    0 0 0

  26 O    1     0.9635     1.8207  32 H    0 0 0
  26 O    1     1.6268     3.0742  22 SI   0 0 0
  26 O    1     2.6081     4.9285  24 O    0 0 0
  26 O    2     2.6970     5.0965  28 O    0 0 0  30 O    0 0 0
  26 O    1     4.2384     8.0094   1 SI   0 0 0
  26 O    2     4.3104     8.1454  16 SI   0 0 0  18 SI   0 0 0

  28 O    1     1.6362     3.0921  16 SI   0 0 0
  28 O    1     1.6426     3.1040  22 SI   0 0 0
  28 O    1     2.6504     5.0085  20 O    0 0 0
  28 O    1     2.6615     5.0294  30 O    0 0 0
  28 O    1     2.6696     5.0448   8 O    0 0 0
  28 O    1     2.6740     5.0531  12 O    0 0 0

  32 H    1     0.9635     1.8207  26 O    0 0 0
  32 H    1     2.2345     4.2226  22 SI   0 0 0
  32 H    2     2.9721     5.6164  28 O    0 0 0  30 O    0 0 0
  32 H    1     3.4982     6.6107  24 O    0 0 0
  32 H    2     4.4906     8.4859  16 SI   0 0 0  18 SI   0 0 0
  32 H    2     4.8362     9.1391   8 O    0 0 0  10 O    0 0 0

 TTTTTTTTTTTTTTTTTTTTTTTTTTTTTT SYMM        TELAPSE        1.73 TCPU        0.25

 ***** NEW REFERENCE GEOMETRY *****

 BORN CHARGE TENSOR. (DINAMIC CHARGE = 1/3 * TRACE)

 ATOM   1 SI DYNAMIC CHARGE     4.112298

              1           2           3
   1     9.9269E+00  0.0000E+00 -1.3009E-02
   2     0.0000E+00  1.2038E+00  0.0000E+00
   3    -1.3994E+01  0.0000E+00  1.2063E+00

 ATOM   2 SI DYNAMIC CHARGE     4.112298

              1           2           3
   1     9.9269E+00  0.0000E+00  1.3009E-02
   2     0.0000E+00  1.2038E+00  0.0000E+00
   3     1.3994E+01  0.0000E+00  1.2063E+00

 ATOM   3 SI DYNAMIC CHARGE    13.031592

              1           2           3
   1     9.6899E+00  0.0000E+00 -8.1853E+00
   2     0.0000E+00  1.6045E+01  0.0000E+00
   3     1.2513E+01  0.0000E+00  1.3360E+01

 ATOM   4 SI DYNAMIC CHARGE    13.031592

              1           2           3
   1     9.6899E+00  0.0000E+00  8.1853E+00
   2     0.0000E+00  1.6045E+01  0.0000E+00
   3    -1.2513E+01  0.0000E+00  1.3360E+01

 ATOM   5 O  DYNAMIC CHARGE     5.589804

              1           2           3
   1    -4.5737E-01  0.0000E+00 -8.1213E+00
   2     0.0000E+00  7.1456E+00  0.0000E+00
   3    -3.6112E-02  0.0000E+00  1.0081E+01

 ATOM   6 O  DYNAMIC CHARGE     5.589804

              1           2           3
   1    -4.5737E-01  0.0000E+00  8.1213E+00
   2     0.0000E+00  7.1456E+00  0.0000E+00
   3     3.6112E-02  0.0000E+00  1.0081E+01

 ATOM   7 O  DYNAMIC CHARGE   -47.920482

              1           2           3
   1    -6.9136E+01  0.0000E+00  0.0000E+00
   2     0.0000E+00  3.1413E+01  0.0000E+00
   3     0.0000E+00  0.0000E+00 -1.0604E+02

 ATOM   8 O  DYNAMIC CHARGE     1.912471

              1           2           3
   1     6.8042E+00  7.4421E-01  1.6222E+01
   2     4.4394E+00 -5.6914E-01  1.6492E+01
   3    -1.0134E+01 -2.3696E+01 -4.9763E-01

 ATOM   9 O  DYNAMIC CHARGE     1.912471

              1           2           3
   1     6.8042E+00 -7.4421E-01 -1.6222E+01
   2    -4.4394E+00 -5.6914E-01  1.6492E+01
   3     1.0134E+01 -2.3696E+01 -4.9763E-01

 ATOM  10 O  DYNAMIC CHARGE     1.912471

              1           2           3
   1     6.8042E+00 -7.4421E-01  1.6222E+01
   2    -4.4394E+00 -5.6914E-01 -1.6492E+01
   3    -1.0134E+01  2.3696E+01 -4.9763E-01

 ATOM  11 O  DYNAMIC CHARGE     1.912471

              1           2           3
   1     6.8042E+00  7.4421E-01 -1.6222E+01
   2     4.4394E+00 -5.6914E-01 -1.6492E+01
   3     1.0134E+01  2.3696E+01 -4.9763E-01

 ATOM  12 O  DYNAMIC CHARGE    -0.815542

              1           2           3
   1    -6.1510E-01  1.4594E-01  1.6176E+01
   2    -2.2262E-01 -1.0313E+00  1.6634E+01
   3     2.0608E-01 -2.3806E+01 -8.0026E-01

 ATOM  13 O  DYNAMIC CHARGE    -0.815542

              1           2           3
   1    -6.1510E-01 -1.4594E-01 -1.6176E+01
   2     2.2262E-01 -1.0313E+00  1.6634E+01
   3    -2.0608E-01 -2.3806E+01 -8.0026E-01

 ATOM  14 O  DYNAMIC CHARGE    -0.815542

              1           2           3
   1    -6.1510E-01 -1.4594E-01  1.6176E+01
   2     2.2262E-01 -1.0313E+00 -1.6634E+01
   3     2.0608E-01  2.3806E+01 -8.0026E-01

 ATOM  15 O  DYNAMIC CHARGE    -0.815542

              1           2           3
   1    -6.1510E-01  1.4594E-01 -1.6176E+01
   2    -2.2262E-01 -1.0313E+00 -1.6634E+01
   3    -2.0608E-01  2.3806E+01 -8.0026E-01

 ATOM  16 SI DYNAMIC CHARGE     2.585756

              1           2           3
   1     1.0466E+01 -8.4809E+00 -2.8942E-02
   2     7.6879E+00 -3.2996E+00  3.5439E+00
   3    -1.2435E+01  1.5416E+01  5.9057E-01

 ATOM  17 SI DYNAMIC CHARGE     2.585756

              1           2           3
   1     1.0466E+01  8.4809E+00  2.8942E-02
   2    -7.6879E+00 -3.2996E+00  3.5439E+00
   3     1.2435E+01  1.5416E+01  5.9057E-01

 ATOM  18 SI DYNAMIC CHARGE     2.585756

              1           2           3
   1     1.0466E+01  8.4809E+00 -2.8942E-02
   2    -7.6879E+00 -3.2996E+00 -3.5439E+00
   3    -1.2435E+01 -1.5416E+01  5.9057E-01

 ATOM  19 SI DYNAMIC CHARGE     2.585756

              1           2           3
   1     1.0466E+01 -8.4809E+00  2.8942E-02
   2     7.6879E+00 -3.2996E+00 -3.5439E+00
   3     1.2435E+01 -1.5416E+01  5.9057E-01

 ATOM  20 O  DYNAMIC CHARGE     2.163314

              1           2           3
   1    -2.4370E-01  0.0000E+00 -1.6149E+01
   2     0.0000E+00  7.1532E+00  0.0000E+00
   3     2.3789E+01  0.0000E+00 -4.1957E-01

 ATOM  21 O  DYNAMIC CHARGE     2.163314

              1           2           3
   1    -2.4370E-01  0.0000E+00  1.6149E+01
   2     0.0000E+00  7.1532E+00  0.0000E+00
   3    -2.3789E+01  0.0000E+00 -4.1957E-01

 ATOM  22 SI DYNAMIC CHARGE     8.660955

              1           2           3
   1     1.5845E+00  0.0000E+00  1.2376E-01
   2     0.0000E+00 -1.6041E-01  0.0000E+00
   3     8.6678E-01  0.0000E+00  2.4559E+01

 ATOM  23 SI DYNAMIC CHARGE     8.660955

              1           2           3
   1     1.5845E+00  0.0000E+00 -1.2376E-01
   2     0.0000E+00 -1.6041E-01  0.0000E+00
   3    -8.6678E-01  0.0000E+00  2.4559E+01

 ATOM  24 O  DYNAMIC CHARGE    -5.004960

              1           2           3
   1    -9.1063E+00  0.0000E+00  8.1163E+00
   2     0.0000E+00  7.0072E+00  0.0000E+00
   3    -9.5521E+00  0.0000E+00 -1.2916E+01

 ATOM  25 O  DYNAMIC CHARGE    -5.004960

              1           2           3
   1    -9.1063E+00  0.0000E+00 -8.1163E+00
   2     0.0000E+00  7.0072E+00  0.0000E+00
   3     9.5521E+00  0.0000E+00 -1.2916E+01

 ATOM  26 O  DYNAMIC CHARGE    -4.941411

              1           2           3
   1    -4.7725E-01  0.0000E+00  8.6431E+00
   2     0.0000E+00 -1.2907E+00  0.0000E+00
   3    -1.6451E-01  0.0000E+00 -1.3056E+01

 ATOM  27 O  DYNAMIC CHARGE    -4.941411

              1           2           3
   1    -4.7725E-01  0.0000E+00 -8.6431E+00
   2     0.0000E+00 -1.2907E+00  0.0000E+00
   3     1.6451E-01  0.0000E+00 -1.3056E+01

 ATOM  28 O  DYNAMIC CHARGE    -1.848982

              1           2           3
   1    -9.2932E+00 -1.6075E+01  1.5205E-03
   2    -8.0872E+00 -1.7562E+01  3.3605E+00
   3     1.2053E+01 -7.7275E-01  2.1308E+01

 ATOM  29 O  DYNAMIC CHARGE    -1.848982

              1           2           3
   1    -9.2932E+00  1.6075E+01 -1.5205E-03
   2     8.0872E+00 -1.7562E+01  3.3605E+00
   3    -1.2053E+01 -7.7275E-01  2.1308E+01

 ATOM  30 O  DYNAMIC CHARGE    -1.848982

              1           2           3
   1    -9.2932E+00  1.6075E+01  1.5205E-03
   2     8.0872E+00 -1.7562E+01 -3.3605E+00
   3     1.2053E+01  7.7275E-01  2.1308E+01

 ATOM  31 O  DYNAMIC CHARGE    -1.848982

              1           2           3
   1    -9.2932E+00 -1.6075E+01 -1.5205E-03
   2    -8.0872E+00 -1.7562E+01 -3.3605E+00
   3    -1.2053E+01  7.7275E-01  2.1308E+01

 ATOM  32 H  DYNAMIC CHARGE    -3.318759

              1           2           3
   1     8.9267E+00  0.0000E+00 -8.6868E+00
   2     0.0000E+00 -7.8873E+00  0.0000E+00
   3    -1.2183E+01  0.0000E+00 -1.0996E+01

 ATOM  33 H  DYNAMIC CHARGE    -3.318759

              1           2           3
   1     8.9267E+00  0.0000E+00  8.6868E+00
   2     0.0000E+00 -7.8873E+00  0.0000E+00
   3     1.2183E+01  0.0000E+00 -1.0996E+01

 +++ SYMMETRY ADAPTION OF VIBRATIONAL MODES +++

 SYMMETRY INFORMATION:
 K-LITTLE GROUP: CLASS TABLE, CHARACTER TABLE.
 IRREP-(DIMENSION, NO. IRREDUCIBLE SETS)
 [WARNINGS: (1) ONLY ACTIVE IRREPS ARE GENERATED AND LISTED.
            (2) SYMBOLS MAY NOT FULLY COINCIDE WITH THOSE FROM TEXT BOOKS]

 CLASS | GROUP OPERATORS (SEE SYMMOPS KEYWORD)
 ------------------------------------------------------------------------
 C2    |  2;
 SGV   |  3;
 SGV'  |  4;

 IRREP/CLA   E    C2    SGV   SGV' 
 --------------------------------
    A1  |  1.00  1.00  1.00  1.00
    A2  |  1.00  1.00 -1.00 -1.00
    B1  |  1.00 -1.00  1.00 -1.00
    B2  |  1.00 -1.00 -1.00  1.00

 A1 -(1,  29); A2 -(1,  20); B1 -(1,  29); B2 -(1,  21);

 BORN TENSOR COMPONENTS IN THE NORMAL MODE BASIS

 MODE        X           Y           Z
   1     0.00000     0.00000     0.00000
   2     0.00000    -2.62521     0.00000
   3    -0.06091     0.00000     0.00000
   4     0.00000     0.00000     0.01403
   5     0.00000     0.06532     0.00000
   6     0.00000     0.00000     1.49636
   7     0.00000     0.00000     0.00000
   8    -7.80380     0.00000     0.00000
   9     0.00000   -13.04489     0.00000
  10     0.00000     0.00000     0.00000
  11     0.00000    -0.41862     0.00000
  12     0.00000     0.00000     0.69036
  13     0.00000     0.00000     0.00000
  14     0.00000     4.85072     0.00000
  15     4.22122     0.00000     0.00000
  16     0.00000     0.00000     0.00000
  17     0.00000     5.38225     0.00000
  18    -3.21133     0.00000     0.00000
  19     0.00000     0.00000     0.00000
  20     0.00000     0.00000     3.40396
  21     0.00000     6.17077     0.00000
  22    -3.44952     0.00000     0.00000
  23     0.00000     0.00000     2.27202
  24     0.00000     0.00000    -9.70331
  25    -9.96750     0.00000     0.00000
  26    12.50665     0.00000     0.00000
  27     0.00000     0.00000     0.00000
  28     0.00000     0.00000     0.00000
  29     0.00000     2.27162     0.00000
  30     0.00000     0.00000    -4.06315
  31     0.00000     5.36906     0.00000
  32    -7.30683     0.00000     0.00000
  33     0.00000     0.00000     0.00000
  34     0.00000     6.20321     0.00000
  35     0.00000     0.00000     1.31709
  36     0.00000     0.00000    -2.16285
  37     0.00000     0.00000     0.00000
  38     0.00000    -4.71224     0.00000
  39     6.11303     0.00000     0.00000
  40     1.02395     0.00000     0.00000
  41     0.00000     0.00000     1.81814
  42    -3.69908     0.00000     0.00000
  43     0.00000     0.00000     0.00000
  44     0.00000     1.57669     0.00000
  45     0.00000     0.00000     0.00000
  46     0.00000    -1.31435     0.00000
  47     0.00000     0.00000    -1.71211
  48    -3.71340     0.00000     0.00000
  49     0.00000     0.00000     4.66041
  50     0.00000     0.00000     0.00000
  51     0.00000    -0.95086     0.00000
  52     0.00000     0.00000     0.88513
  53    -2.42931     0.00000     0.00000
  54     2.19405     0.00000     0.00000
  55     0.00000     0.00000   -14.89977
  56     0.83762     0.00000     0.00000
  57     0.00000     0.00000     6.62367
  58     0.32890     0.00000     0.00000
  59     0.00000     0.00000    15.02068
  60    -3.73036     0.00000     0.00000
  61     0.00000     0.00000     0.00000
  62     0.00000    -1.99372     0.00000
  63     0.00000     0.00000    -6.60055
  64    -4.67519     0.00000     0.00000
  65     0.00000     0.00000     3.46273
  66     0.00000     0.00000     7.04970
  67     3.66815     0.00000     0.00000
  68     0.00000     0.00000     0.00000
  69     0.00000    -1.09676     0.00000
  70     0.00000     0.00000     0.00000
  71     0.42921     0.00000     0.00000
  72     0.00000     2.41117     0.00000
  73     0.00000     0.00000    -0.32477
  74    -3.63796     0.00000     0.00000
  75     0.00000     0.00000   -14.10446
  76    -3.48428     0.00000     0.00000
  77     0.00000     0.00000   -14.89823
  78    -0.20072     0.00000     0.00000
  79     0.00000     0.00000     0.00000
  80     0.00000     3.19463     0.00000
  81     0.00000     0.00000    -2.80056
  82    -7.12606     0.00000     0.00000
  83     0.00000     0.00000     0.00000
  84     0.00000     6.11115     0.00000
  85     0.00000     0.00000     5.75068
  86    -1.88746     0.00000     0.00000
  87     0.00000     0.00000     0.00000
  88     0.00000     3.71731     0.00000
  89     0.00000     0.00000    -5.49375
  90     5.21244     0.00000     0.00000
  91     0.00000     0.00000    -1.90864
  92     3.34163     0.00000     0.00000
  93     0.00000     0.00000    -7.18981
  94     1.65629     0.00000     0.00000
  95     0.00000     0.00000     0.00000
  96     0.00000     5.78229     0.00000
  97     0.00000     0.00000   -24.76704
  98     0.00000     0.00000     6.86344
  99    17.08156     0.00000     0.00000

 HHHHHHHHHHHHHHHHHHHHHHHHHHHHHHHHHHHHHHHHHHHHHHHHHHHHHHHHHHHHHHHHHHHHHHHHHHHHHH
 EIGENVALUES (EV) OF THE MASS WEIGHTED HESSIAN MATRIX AND HARMONIC FREQUENCIES.
 IRREP LABELS REFER TO SYMMETRY REPRESENTATION ANALYSIS;  A AND I INDICATE
 WHETHER THE MODE IS ACTIVE OR INACTIVE, RESPECTIVELY, FOR IR AND RAMAN;
 IR INTENSITIES IN BRACKETS.
 HHHHHHHHHHHHHHHHHHHHHHHHHHHHHHHHHHHHHHHHHHHHHHHHHHHHHHHHHHHHHHHHHHHHHHHHHHHHHH

    MODES          EV           FREQUENCIES     IRREP  IR   INTENS    RAMAN
                  (AU)      (CM**-1)     (THZ)             (KM/MOL)
    1-   1   -0.00004031    -32.6352   -0.9784  (A2 )   I (     0.00)   A
    2-   2   -0.00003920    -32.1842   -0.9649  (B2 )   A (  6718.50)   A
    3-   3   -0.00000027     -2.6678   -0.0800  (A1 )   A (     3.62)   A
    4-   4   -0.00000008     -1.4961   -0.0449  (B1 )   A (     0.19)   A
    5-   5    0.00000075      4.4496    0.1334  (B2 )   A (     4.16)   A
    6-   6    0.00002305     24.6789    0.7399  (B1 )   A (  2182.82)   A
    7-   7    0.00004374     33.9967    1.0192  (A2 )   I (     0.00)   A
    8-   8    0.00007707     45.1270    1.3529  (A1 )   A ( 59368.58)   A
    9-   9    0.00025117     81.4689    2.4424  (B2 )   A (165891.94)   A
   10-  10    0.00026101     83.0484    2.4897  (A2 )   I (     0.00)   A
   11-  11    0.00030533     89.8229    2.6928  (B2 )   A (   170.84)   A
   12-  12    0.00036758     98.5552    2.9546  (B1 )   A (   464.62)   A
   13-  13    0.00047191    111.6696    3.3478  (A2 )   I (     0.00)   A
   14-  14    0.00047284    111.7792    3.3511  (B2 )   A ( 22938.06)   A
   15-  15    0.00051332    116.4660    3.4916  (A1 )   A ( 17370.81)   A
   16-  16    0.00054000    119.4542    3.5811  (A2 )   I (     0.00)   A
   17-  17    0.00097979    160.9054    4.8238  (B2 )   A ( 28240.50)   A
   18-  18    0.00112496    172.4143    5.1689  (A1 )   A ( 10053.45)   A
   19-  19    0.00116074    175.1344    5.2504  (A2 )   I (     0.00)   A
   20-  20    0.00120508    178.4486    5.3498  (B1 )   A ( 11295.72)   A
   21-  21    0.00180288    218.2670    6.5435  (B2 )   A ( 37121.27)   A
   22-  22    0.00183681    220.3109    6.6048  (A1 )   A ( 11600.11)   A
   23-  23    0.00209318    235.1841    7.0506  (B1 )   A (  5032.33)   A
   24-  24    0.00229066    246.0278    7.3757  (B1 )   A ( 91787.65)   A
   25-  25    0.00231350    247.2514    7.4124  (A1 )   A ( 96854.02)   A
   26-  26    0.00253924    259.0337    7.7656  (A1 )   A (152484.84)   A
   27-  27    0.00254668    259.4129    7.7770  (A2 )   I (     0.00)   A
   28-  28    0.00274925    269.5326    8.0804  (A2 )   I (     0.00)   A
   29-  29    0.00275101    269.6191    8.0830  (B2 )   A (  5030.56)   A
   30-  30    0.00287880    275.8101    8.2686  (B1 )   A ( 16094.26)   A
   31-  31    0.00310207    286.3058    8.5832  (B2 )   A ( 28102.22)   A
   32-  32    0.00314304    288.1904    8.6397  (A1 )   A ( 52047.87)   A
   33-  33    0.00330443    295.4969    8.8588  (A2 )   I (     0.00)   A
   34-  34    0.00372998    313.9479    9.4119  (B2 )   A ( 37512.62)   A
   35-  35    0.00384906    318.9201    9.5610  (B1 )   A (  1691.13)   A
   36-  36    0.00401942    325.9012    9.7703  (B1 )   A (  4560.36)   A
   37-  37    0.00410468    329.3395    9.8733  (A2 )   I (     0.00)   A
   38-  38    0.00412327    330.0847    9.8957  (B2 )   A ( 21647.13)   A
   39-  39    0.00424875    335.0694   10.0451  (A1 )   A ( 36429.84)   A
   40-  40    0.00456663    347.3780   10.4141  (A1 )   A (  1022.11)   A
   41-  41    0.00493392    361.0774   10.8248  (B1 )   A (  3222.54)   A
   42-  42    0.00528261    373.6187   11.2008  (A1 )   A ( 13339.26)   A
   43-  43    0.00533702    375.5380   11.2583  (A2 )   I (     0.00)   A
   44-  44    0.00552357    382.0446   11.4534  (B2 )   A (  2423.45)   A
   45-  45    0.00592284    395.6118   11.8601  (A2 )   I (     0.00)   A
   46-  46    0.00592963    395.8384   11.8669  (B2 )   A (  1684.10)   A
   47-  47    0.00597951    397.4999   11.9167  (B1 )   A (  2857.65)   A
   48-  48    0.00615452    403.2751   12.0899  (A1 )   A ( 13442.75)   A
   49-  49    0.00685069    425.4725   12.7553  (B1 )   A ( 21173.49)   A
   50-  50    0.00693254    428.0067   12.8313  (A2 )   I (     0.00)   A
   51-  51    0.00697487    429.3114   12.8704  (B2 )   A (   881.40)   A
   52-  52    0.00697894    429.4366   12.8742  (B1 )   A (   763.77)   A
   53-  53    0.00707604    432.4136   12.9634  (A1 )   A (  5753.24)   A
   54-  54    0.00878930    481.9270   14.4478  (A1 )   A (  4692.85)   A
   55-  55    0.00919905    493.0327   14.7807  (B1 )   A (216423.17)   A
   56-  56    0.01089440    536.5448   16.0852  (A1 )   A (   683.96)   A
   57-  57    0.01097439    538.5109   16.1442  (B1 )   A ( 42770.32)   A
   58-  58    0.01482685    625.9343   18.7650  (A1 )   A (   105.45)   A
   59-  59    0.01555959    641.2145   19.2231  (B1 )   A (219949.89)   A
   60-  60    0.01603028    650.8408   19.5117  (A1 )   A ( 13565.85)   A
   61-  61    0.01692549    668.7671   20.0491  (A2 )   I (     0.00)   A
   62-  62    0.01712448    672.6870   20.1666  (B2 )   A (  3875.00)   A
   63-  63    0.01785903    686.9628   20.5946  (B1 )   A ( 42472.20)   A
   64-  64    0.01809310    691.4500   20.7291  (A1 )   A ( 21308.04)   A
   65-  65    0.01926746    713.5371   21.3913  (B1 )   A ( 11689.09)   A
   66-  66    0.02324023    783.6543   23.4934  (B1 )   A ( 48449.15)   A
   67-  67    0.02336299    785.7213   23.5553  (A1 )   A ( 13117.16)   A
   68-  68    0.02411004    798.1844   23.9290  (A2 )   I (     0.00)   A
   69-  69    0.02412202    798.3827   23.9349  (B2 )   A (  1172.64)   A
   70-  70    0.02442745    803.4214   24.0860  (A2 )   I (     0.00)   A
   71-  71    0.02469251    807.7685   24.2163  (A1 )   A (   179.59)   A
   72-  72    0.02470519    807.9758   24.2225  (B2 )   A (  5667.63)   A
   73-  73    0.02503247    813.3100   24.3824  (B1 )   A (   102.82)   A
   74-  74    0.02535059    818.4616   24.5369  (A1 )   A ( 12902.13)   A
   75-  75    0.02968020    885.6001   26.5496  (B1 )   A (193935.69)   A
   76-  76    0.02969685    885.8485   26.5571  (A1 )   A ( 11835.10)   A
   77-  77    0.03756756    996.3473   29.8697  (B1 )   A (216378.62)   A
   78-  78    0.03758880    996.6290   29.8782  (A1 )   A (    39.28)   A
   79-  79    0.04114797   1042.7459   31.2607  (A2 )   I (     0.00)   A
   80-  80    0.04116586   1042.9726   31.2675  (B2 )   A (  9949.14)   A
   81-  81    0.04219027   1055.8699   31.6542  (B1 )   A (  7646.00)   A
   82-  82    0.04223614   1056.4438   31.6714  (A1 )   A ( 49504.34)   A
   83-  83    0.04229538   1057.1844   31.6936  (A2 )   I (     0.00)   A
   84-  84    0.04235843   1057.9721   31.7172  (B2 )   A ( 36407.53)   A
   85-  85    0.04295381   1065.3814   31.9393  (B1 )   A ( 32239.09)   A
   86-  86    0.04300722   1066.0436   31.9592  (A1 )   A (  3472.96)   A
   87-  87    0.04525182   1093.5089   32.7826  (A2 )   I (     0.00)   A
   88-  88    0.04527063   1093.7361   32.7894  (B2 )   A ( 13471.09)   A
   89-  89    0.05099624   1160.8427   34.8012  (B1 )   A ( 29422.68)   A
   90-  90    0.05210486   1173.3927   35.1774  (A1 )   A ( 26486.66)   A
   91-  91    0.05302340   1183.6903   35.4861  (B1 )   A (  3551.34)   A
   92-  92    0.05322903   1185.9833   35.5549  (A1 )   A ( 10885.86)   A
   93-  93    0.05526502   1208.4521   36.2285  (B1 )   A ( 50394.08)   A
   94-  94    0.05616769   1218.2812   36.5232  (A1 )   A (  2674.34)   A
   95-  95    0.05883407   1246.8630   37.3800  (A2 )   I (     0.00)   A
   96-  96    0.05890380   1247.6016   37.4022  (B2 )   A ( 32594.54)   A
   97-  97    0.06233943   1283.4699   38.4775  (B1 )   A (597988.47)   A
   98-  98    0.57649231   3903.0223  117.0097  (B1 )   A ( 45922.81)   A
   99-  99    0.57649419   3903.0287  117.0099  (A1 )   A (284445.87)   A

 HHHHHHHHHHHHHHHHHHHHHHHHHHHHHHHHHHHHHHHHHHHHHHHHHHHHHHHHHHHHHHHHHHHHHHHHHHHHHH
 VIBRATIONAL ANALYSIS:
 1) EACH PAIR OF BONDED ATOMS (I.E. WITHIN THEIR VAN DER WAALS DISTANCE) A AND
 B IS EXAMINED TO SEE IF THERE IS A LARGE RELATIVE MOTION BETWEEN THEM.
 2) IF SO, THE AB MOTION IS DECOMPOSED IN THREE COMPONENTS: ALONG A-B(LONG),
 ON THE PLANE CONTAING A THIRD ATOM C (ANG) AND OUT OF THE PLANE (OUT).
 LONG+ANG+OUT=1.
 3) THE MODES ARE CLASSIFIED SO AS: LONG > 0.85 -> STRETCHING (S);
 ANG > 0.85 -> BENDING (B); OTHERWISE -> OTHER (O). TYPE (?) MEANS THE MODE IS
 LIKELY TO BE ROTATIONAL. THE POTENTIAL ENERGY CONTRIBUTION (PEC) IS IN KJ/MOL.
 HHHHHHHHHHHHHHHHHHHHHHHHHHHHHHHHHHHHHHHHHHHHHHHHHHHHHHHHHHHHHHHHHHHHHHHHHHHHHH

  MODE FRQ(CM**-1) IRREP TYP     A      B  LONG      C  ANG     PEC
    1    -32.6352  (A2 )
                         (?)    5 O    1 SI(0.0)   8 O (0.8)    0.1
                         (?)    8 O    1 SI(0.0)   5 O (0.8)    0.1
                         (?)   10 O    1 SI(0.0)   5 O (0.8)    0.1
                         (?)   24 O    1 SI(0.0)   8 O (0.8)    0.1
                         (?)    6 O    2 SI(0.0)   9 O (0.8)    0.1
                         (?)    9 O    2 SI(0.0)   6 O (0.8)    0.1
                         (?)   11 O    2 SI(0.0)   6 O (0.8)    0.1
                         (?)   25 O    2 SI(0.0)   9 O (0.8)    0.1
    2    -32.1842  (B2 )
                         (?)    5 O    1 SI(0.0)   8 O (0.8)    0.1
                         (?)    8 O    1 SI(0.0)   5 O (0.8)    0.1
                         (?)   10 O    1 SI(0.0)   5 O (0.8)    0.1
                         (?)   24 O    1 SI(0.0)   8 O (0.8)    0.1
                         (?)    6 O    2 SI(0.0)   9 O (0.8)    0.1
                         (?)    9 O    2 SI(0.0)   6 O (0.8)    0.1
                         (?)   11 O    2 SI(0.0)   6 O (0.8)    0.1
                         (?)   25 O    2 SI(0.0)   9 O (0.8)    0.1
    3     -2.6678  (A1 )
    4     -1.4961  (B1 )
    5      4.4496  (B2 )
    6     24.6789  (B1 )
                         (?)    7 O    3 SI(0.0)   5 O (1.0)    0.0
                         (?)    7 O    4 SI(0.0)   6 O (1.0)    0.0
    7     33.9967  (A2 )
                         (?)   32 H   26 O (0.0)  26 O (0.0)    0.0
                         (?)   33 H   27 O (0.0)  27 O (0.0)    0.0
    8     45.1270  (A1 )
                         (?)    7 O    3 SI(0.0)   5 O (1.0)    0.1
                         (?)    7 O    4 SI(0.0)   6 O (1.0)    0.1
    9     81.4689  (B2 )
                         (?)   32 H   26 O (0.0)  26 O (0.0)    0.8
                         (?)   33 H   27 O (0.0)  27 O (0.0)    0.8
   10     83.0484  (A2 )
                         (?)   32 H   26 O (0.0)  26 O (0.0)    0.8
                         (?)   33 H   27 O (0.0)  27 O (0.0)    0.8
   11     89.8229  (B2 )
                         (?)   32 H   26 O (0.0)  26 O (0.0)    0.1
                         (?)   33 H   27 O (0.0)  27 O (0.0)    0.1
   12     98.5552  (B1 )
                         (?)   22 SI  24 O (0.0)   1 SI(1.0)    0.1
                         (?)   26 O   22 SI(0.0)  24 O (1.0)    0.2
                         (?)   23 SI  25 O (0.0)   2 SI(1.0)    0.1
                         (?)   23 SI  27 O (0.0)  33 H (1.0)    0.2
   13    111.6696  (A2 )
                         (O)   32 H   26 O (0.0)  26 O (0.0)    0.0
                         (O)   33 H   27 O (0.0)  27 O (0.0)    0.0
   14    111.7792  (B2 )
                         (O)   32 H   26 O (0.0)  26 O (0.0)    0.0
                         (O)   33 H   27 O (0.0)  27 O (0.0)    0.0
   15    116.4660  (A1 )
                         (B)   12 O    3 SI(0.0)   7 O (1.0)    0.0
                         (B)   14 O    3 SI(0.0)   7 O (1.0)    0.0
                         (B)   13 O    4 SI(0.0)   7 O (1.0)    0.0
                         (B)   15 O    4 SI(0.0)   7 O (1.0)    0.0
   16    119.4542  (A2 )
                         (O)   26 O   22 SI(0.0)  28 O (0.8)    0.1
                         (O)   27 O   23 SI(0.0)  29 O (0.8)    0.1
   17    160.9054  (B2 )
                         (O)   32 H   26 O (0.0)  26 O (0.0)    0.1
                         (O)   33 H   27 O (0.0)  27 O (0.0)    0.1
   18    172.4143  (A1 )
                         (B)    5 O    1 SI(0.0)  24 O (1.0)    0.1
                         (B)    1 SI  24 O (0.0)  22 SI(1.0)    0.1
                         (B)    6 O    2 SI(0.0)  25 O (1.0)    0.1
                         (B)    2 SI  25 O (0.0)  23 SI(1.0)    0.1
   19    175.1344  (A2 )
                         (O)   32 H   26 O (0.0)  26 O (0.0)    0.2
                         (O)   33 H   27 O (0.0)  27 O (0.0)    0.2
   20    178.4486  (B1 )
                         (B)   26 O   22 SI(0.0)  24 O (1.0)    0.2
                         (B)   23 SI  27 O (0.0)  33 H (1.0)    0.2
   21    218.2670  (B2 )
                         (O)   32 H   26 O (0.0)  26 O (0.0)    0.2
                         (O)   33 H   27 O (0.0)  27 O (0.0)    0.2
   22    220.3109  (A1 )
                         (B)   26 O   22 SI(0.0)  24 O (1.0)    0.5
                         (B)   23 SI  27 O (0.0)  33 H (1.0)    0.5
   23    235.1841  (B1 )
                         (B)   20 O   16 SI(0.0)  12 O (0.9)    0.2
                         (B)   21 O   17 SI(0.0)  13 O (0.9)    0.2
                         (B)   20 O   18 SI(0.0)  14 O (0.9)    0.2
                         (B)   21 O   19 SI(0.0)  15 O (0.9)    0.2
   24    246.0278  (B1 )
                         (B)   20 O   16 SI(0.0)   8 O (1.0)    0.3
                         (B)   21 O   17 SI(0.0)   9 O (1.0)    0.3
                         (B)   20 O   18 SI(0.0)  10 O (1.0)    0.3
                         (B)   21 O   19 SI(0.0)  11 O (1.0)    0.3
   25    247.2514  (A1 )
                         (O)   20 O   16 SI(0.0)   8 O (0.8)    0.3
                         (O)   21 O   17 SI(0.0)   9 O (0.8)    0.3
                         (O)   20 O   18 SI(0.0)  10 O (0.8)    0.3
                         (O)   21 O   19 SI(0.0)  11 O (0.8)    0.3
   26    259.0337  (A1 )
                         (B)   20 O   16 SI(0.0)  12 O (0.9)    0.2
                         (B)   21 O   17 SI(0.0)  13 O (0.9)    0.2
                         (B)   20 O   18 SI(0.0)  14 O (0.9)    0.2
                         (B)   21 O   19 SI(0.0)  15 O (0.9)    0.2
   27    259.4129  (A2 )
                         (O)   32 H   26 O (0.0)  26 O (0.0)    0.2
                         (O)   33 H   27 O (0.0)  27 O (0.0)    0.2
   28    269.5326  (A2 )
                         (O)    5 O    1 SI(0.0)   8 O (0.8)    0.2
                         (O)   24 O    1 SI(0.0)   8 O (0.8)    0.2
                         (O)    6 O    2 SI(0.0)   9 O (0.8)    0.2
                         (O)   25 O    2 SI(0.0)   9 O (0.8)    0.2
   29    269.6191  (B2 )
                         (O)    5 O    1 SI(0.0)   8 O (0.8)    0.2
                         (O)   24 O    1 SI(0.0)   8 O (0.8)    0.2
                         (O)    6 O    2 SI(0.0)   9 O (0.8)    0.2
                         (O)   25 O    2 SI(0.0)   9 O (0.8)    0.2
   30    275.8101  (B1 )
                         (O)    8 O    1 SI(0.0)   5 O (0.8)    0.2
                         (O)   10 O    1 SI(0.0)   5 O (0.8)    0.2
                         (O)    9 O    2 SI(0.0)   6 O (0.8)    0.2
                         (O)   11 O    2 SI(0.0)   6 O (0.8)    0.2
   31    286.3058  (B2 )
                         (O)   32 H   26 O (0.0)  26 O (0.0)    0.1
                         (O)   33 H   27 O (0.0)  27 O (0.0)    0.1
   32    288.1904  (A1 )
                         (B)    7 O    3 SI(0.0)   5 O (1.0)    0.1
                         (B)    7 O    4 SI(0.0)   6 O (1.0)    0.1
   33    295.4969  (A2 )
[...]
            Y    -0.0026    0.0001    0.0526   -0.0523    0.0162   -0.0257
            Z     0.0025    0.0024    0.0000    0.0000   -0.0008   -0.0003
 AT.   9 O  X    -0.0029   -0.0003   -0.0730   -0.0726    0.0163    0.0300
            Y    -0.0026   -0.0001   -0.0526   -0.0523    0.0162    0.0257
            Z     0.0025   -0.0024    0.0000    0.0000   -0.0008    0.0003
 AT.  10 O  X     0.0029   -0.0003    0.0730   -0.0726   -0.0163    0.0300
            Y     0.0026   -0.0001    0.0526   -0.0523   -0.0162    0.0257
            Z     0.0025    0.0024    0.0000    0.0000   -0.0008   -0.0003
 AT.  11 O  X    -0.0029   -0.0003    0.0730    0.0726    0.0163    0.0300
            Y     0.0026    0.0001   -0.0526   -0.0523   -0.0162   -0.0257
            Z     0.0025   -0.0024    0.0000    0.0000   -0.0008    0.0003
 AT.  12 O  X    -0.0228   -0.0232    0.0206   -0.0210    0.0376   -0.0314
            Y    -0.0300   -0.0309    0.0214   -0.0219    0.0431   -0.0374
            Z     0.0290    0.0300   -0.0224    0.0227   -0.0454    0.0366
 AT.  13 O  X     0.0228   -0.0232    0.0206    0.0210   -0.0376   -0.0314
            Y    -0.0300    0.0309   -0.0214   -0.0219    0.0431    0.0374
            Z     0.0290   -0.0300    0.0224    0.0227   -0.0454   -0.0366
 AT.  14 O  X    -0.0228   -0.0232   -0.0206    0.0210    0.0376   -0.0314
            Y     0.0300    0.0309    0.0214   -0.0219   -0.0431    0.0374
            Z     0.0290    0.0300    0.0224   -0.0227   -0.0454    0.0366
 AT.  15 O  X     0.0228   -0.0232   -0.0206   -0.0210   -0.0376   -0.0314
            Y     0.0300   -0.0309   -0.0214   -0.0219   -0.0431   -0.0374
            Z     0.0290   -0.0300   -0.0224   -0.0227   -0.0454   -0.0366
 AT.  16 SI X    -0.0011    0.0001    0.0131   -0.0129   -0.0165    0.0108
            Y    -0.0001   -0.0003   -0.0271    0.0272   -0.0211    0.0235
            Z    -0.0214   -0.0210    0.0015   -0.0016    0.0062    0.0034
 AT.  17 SI X     0.0011    0.0001    0.0131    0.0129    0.0165    0.0108
            Y    -0.0001    0.0003    0.0271    0.0272   -0.0211   -0.0235
            Z    -0.0214    0.0210   -0.0015   -0.0016    0.0062   -0.0034
 AT.  18 SI X    -0.0011    0.0001   -0.0131    0.0129   -0.0165    0.0108
            Y     0.0001    0.0003   -0.0271    0.0272    0.0211   -0.0235
            Z    -0.0214   -0.0210   -0.0015    0.0016    0.0062    0.0034
 AT.  19 SI X     0.0011    0.0001   -0.0131   -0.0129    0.0165    0.0108
            Y     0.0001   -0.0003    0.0271    0.0272    0.0211    0.0235
            Z    -0.0214    0.0210    0.0015    0.0016    0.0062   -0.0034
 AT.  20 O  X    -0.0004    0.0000    0.0000    0.0000    0.0013   -0.0012
            Y     0.0000    0.0000    0.0569   -0.0574    0.0000    0.0000
            Z    -0.0042   -0.0043    0.0000    0.0000   -0.0006   -0.0005
 AT.  21 O  X     0.0004    0.0000    0.0000    0.0000   -0.0013   -0.0012
            Y     0.0000    0.0000   -0.0569   -0.0574    0.0000    0.0000
            Z    -0.0042    0.0043    0.0000    0.0000   -0.0006    0.0005
 AT.  22 SI X    -0.0341   -0.0327    0.0000    0.0000   -0.0036    0.0085
            Y     0.0000    0.0000   -0.0157    0.0157    0.0000    0.0000
            Z    -0.0093   -0.0089    0.0000    0.0000   -0.0237    0.0283
 AT.  23 SI X     0.0341   -0.0327    0.0000    0.0000    0.0036    0.0085
            Y     0.0000    0.0000    0.0157    0.0157    0.0000    0.0000
            Z    -0.0093    0.0089    0.0000    0.0000   -0.0237   -0.0283
 AT.  24 O  X     0.0701    0.0670    0.0000    0.0000   -0.0379    0.0387
            Y     0.0000    0.0000   -0.0027    0.0027    0.0000    0.0000
            Z    -0.0518   -0.0492    0.0000    0.0000    0.0297   -0.0330
 AT.  25 O  X    -0.0701    0.0670    0.0000    0.0000    0.0379    0.0387
            Y     0.0000    0.0000    0.0027    0.0027    0.0000    0.0000
            Z    -0.0518    0.0492    0.0000    0.0000    0.0297    0.0330
 AT.  26 O  X    -0.0048   -0.0045    0.0000    0.0000    0.0001   -0.0004
            Y     0.0000    0.0000   -0.0004    0.0004    0.0000    0.0000
            Z     0.0098    0.0093    0.0000    0.0000    0.0111   -0.0128
 AT.  27 O  X     0.0048   -0.0045    0.0000    0.0000   -0.0001   -0.0004
            Y     0.0000    0.0000    0.0004    0.0004    0.0000    0.0000
            Z     0.0098   -0.0093    0.0000    0.0000    0.0111    0.0128
 AT.  28 O  X     0.0246    0.0238    0.0163   -0.0163    0.0283   -0.0357
            Y     0.0329    0.0316    0.0162   -0.0162    0.0330   -0.0418
            Z     0.0328    0.0314    0.0178   -0.0179    0.0331   -0.0434
 AT.  29 O  X    -0.0246    0.0238    0.0163    0.0163   -0.0283   -0.0357
            Y     0.0329   -0.0316   -0.0162   -0.0162    0.0330    0.0418
            Z     0.0328   -0.0314   -0.0178   -0.0179    0.0331    0.0434
 AT.  30 O  X     0.0246    0.0238   -0.0163    0.0163    0.0283   -0.0357
            Y    -0.0329   -0.0316    0.0162   -0.0162   -0.0330    0.0418
            Z     0.0328    0.0314   -0.0178    0.0179    0.0331   -0.0434
 AT.  31 O  X    -0.0246    0.0238   -0.0163   -0.0163   -0.0283   -0.0357
            Y    -0.0329    0.0316   -0.0162   -0.0162   -0.0330   -0.0418
            Z     0.0328   -0.0314    0.0178    0.0179    0.0331    0.0434
 AT.  32 H  X     0.0004    0.0002    0.0000    0.0000    0.0020   -0.0007
            Y     0.0000    0.0000   -0.0005    0.0005    0.0000    0.0000
            Z     0.0194    0.0180    0.0000    0.0000    0.0145   -0.0138
 AT.  33 H  X    -0.0004    0.0002    0.0000    0.0000   -0.0020   -0.0007
            Y     0.0000    0.0000    0.0005    0.0005    0.0000    0.0000
            Z     0.0194   -0.0180    0.0000    0.0000    0.0145    0.0138

 FREQ(CM**-1)   1183.69   1185.98   1208.45   1218.28   1246.86   1247.60

 AT.   1 SI X     0.0078   -0.0007   -0.0028   -0.0035    0.0000    0.0000
            Y     0.0000    0.0000    0.0000    0.0000    0.0200    0.0201
            Z    -0.0060    0.0002    0.0397   -0.0391    0.0000    0.0000
 AT.   2 SI X    -0.0078   -0.0007    0.0028   -0.0035    0.0000    0.0000
            Y     0.0000    0.0000    0.0000    0.0000   -0.0200    0.0201
            Z    -0.0060   -0.0002    0.0397    0.0391    0.0000    0.0000
 AT.   3 SI X    -0.0285    0.0271   -0.0002   -0.0013    0.0000    0.0000
            Y     0.0000    0.0000    0.0000    0.0000    0.0171    0.0176
            Z    -0.0040    0.0110    0.0089   -0.0276    0.0000    0.0000
 AT.   4 SI X     0.0285    0.0271    0.0002   -0.0013    0.0000    0.0000
            Y     0.0000    0.0000    0.0000    0.0000   -0.0171    0.0176
            Z    -0.0040   -0.0110    0.0089    0.0276    0.0000    0.0000
 AT.   5 O  X     0.0624   -0.0647   -0.0386    0.0548    0.0000    0.0000
            Y     0.0000    0.0000    0.0000    0.0000   -0.0022   -0.0023
            Z     0.0443   -0.0454   -0.0356    0.0483    0.0000    0.0000
 AT.   6 O  X    -0.0624   -0.0647    0.0386    0.0548    0.0000    0.0000
            Y     0.0000    0.0000    0.0000    0.0000    0.0022   -0.0023
            Z     0.0443    0.0454   -0.0356   -0.0483    0.0000    0.0000
 AT.   7 O  X     0.0000   -0.0005    0.0000   -0.0010    0.0000    0.0000
            Y     0.0000    0.0000    0.0000    0.0000    0.0000   -0.0019
            Z    -0.0070    0.0000    0.0195    0.0000    0.0000    0.0000
 AT.   8 O  X    -0.0697    0.0651   -0.0064    0.0028    0.0222    0.0223
            Y     0.0501   -0.0459    0.0042   -0.0025   -0.0221   -0.0222
            Z     0.0003    0.0002   -0.0034    0.0033    0.0000    0.0000
 AT.   9 O  X     0.0697    0.0651    0.0064    0.0028    0.0222   -0.0223
            Y     0.0501    0.0459    0.0042    0.0025    0.0221   -0.0222
            Z     0.0003   -0.0002   -0.0034   -0.0033    0.0000    0.0000
 AT.  10 O  X    -0.0697    0.0651   -0.0064    0.0028   -0.0222   -0.0223
            Y    -0.0501    0.0459   -0.0042    0.0025   -0.0221   -0.0222
            Z     0.0003    0.0002   -0.0034    0.0033    0.0000    0.0000
 AT.  11 O  X     0.0697    0.0651    0.0064    0.0028   -0.0222    0.0223
            Y    -0.0501   -0.0459   -0.0042   -0.0025    0.0221   -0.0222
            Z     0.0003   -0.0002   -0.0034   -0.0033    0.0000    0.0000
 AT.  12 O  X     0.0046   -0.0006    0.0234   -0.0309   -0.0122   -0.0123
            Y     0.0077   -0.0027    0.0263   -0.0353   -0.0188   -0.0190
            Z    -0.0030   -0.0014   -0.0331    0.0428    0.0133    0.0131
 AT.  13 O  X    -0.0046   -0.0006   -0.0234   -0.0309   -0.0122    0.0123
            Y     0.0077    0.0027    0.0263    0.0353    0.0188   -0.0190
            Z    -0.0030    0.0014   -0.0331   -0.0428   -0.0133    0.0131
 AT.  14 O  X     0.0046   -0.0006    0.0234   -0.0309    0.0122    0.0123
            Y    -0.0077    0.0027   -0.0263    0.0353   -0.0188   -0.0190
            Z    -0.0030   -0.0014   -0.0331    0.0428   -0.0133   -0.0131
 AT.  15 O  X    -0.0046   -0.0006   -0.0234   -0.0309    0.0122   -0.0123
            Y    -0.0077   -0.0027   -0.0263   -0.0353    0.0188   -0.0190
            Z    -0.0030    0.0014   -0.0331   -0.0428    0.0133   -0.0131
 AT.  16 SI X     0.0231   -0.0261    0.0043    0.0016   -0.0014   -0.0014
            Y    -0.0165    0.0119    0.0003    0.0026   -0.0329   -0.0329
            Z    -0.0046    0.0002    0.0332   -0.0329   -0.0002    0.0000
 AT.  17 SI X    -0.0231   -0.0261   -0.0043    0.0016   -0.0014    0.0014
            Y    -0.0165   -0.0119    0.0003   -0.0026    0.0329   -0.0329
            Z    -0.0046   -0.0002    0.0332    0.0329    0.0002    0.0000
 AT.  18 SI X     0.0231   -0.0261    0.0043    0.0016    0.0014    0.0014
            Y     0.0165   -0.0119   -0.0003   -0.0026   -0.0329   -0.0329
            Z    -0.0046    0.0002    0.0332   -0.0329    0.0002    0.0000
 AT.  19 SI X    -0.0231   -0.0261   -0.0043    0.0016    0.0014   -0.0014
            Y     0.0165    0.0119   -0.0003    0.0026    0.0329   -0.0329
            Z    -0.0046   -0.0002    0.0332    0.0329   -0.0002    0.0000
 AT.  20 O  X    -0.0001    0.0004   -0.0002   -0.0001    0.0000    0.0000
            Y     0.0000    0.0000    0.0000    0.0000    0.1457    0.1455
            Z     0.0004    0.0000   -0.0029    0.0027    0.0000    0.0000
 AT.  21 O  X     0.0001    0.0004    0.0002   -0.0001    0.0000    0.0000
            Y     0.0000    0.0000    0.0000    0.0000   -0.1457    0.1455
            Z     0.0004    0.0000   -0.0029   -0.0027    0.0000    0.0000
 AT.  22 SI X    -0.0287    0.0280   -0.0069    0.0045    0.0000    0.0000
            Y     0.0000    0.0000    0.0000    0.0000    0.0162    0.0162
            Z     0.0030   -0.0124    0.0309   -0.0237    0.0000    0.0000
 AT.  23 SI X     0.0287    0.0280    0.0069    0.0045    0.0000    0.0000
            Y     0.0000    0.0000    0.0000    0.0000   -0.0162    0.0162
            Z     0.0030    0.0124    0.0309    0.0237    0.0000    0.0000
 AT.  24 O  X     0.0482   -0.0641    0.0650   -0.0487    0.0000    0.0000
            Y     0.0000    0.0000    0.0000    0.0000   -0.0023   -0.0023
            Z    -0.0317    0.0454   -0.0561    0.0435    0.0000    0.0000
 AT.  25 O  X    -0.0482   -0.0641   -0.0650   -0.0487    0.0000    0.0000
            Y     0.0000    0.0000    0.0000    0.0000    0.0023   -0.0023
            Z    -0.0317   -0.0454   -0.0561   -0.0435    0.0000    0.0000
 AT.  26 O  X     0.0020   -0.0020    0.0005   -0.0003    0.0000    0.0000
            Y     0.0000    0.0000    0.0000    0.0000   -0.0011   -0.0011
            Z    -0.0009    0.0051   -0.0128    0.0096    0.0000    0.0000
 AT.  27 O  X    -0.0020   -0.0020   -0.0005   -0.0003    0.0000    0.0000
            Y     0.0000    0.0000    0.0000    0.0000    0.0011   -0.0011
            Z    -0.0009   -0.0051   -0.0128   -0.0096    0.0000    0.0000
 AT.  28 O  X     0.0120   -0.0014   -0.0293    0.0228   -0.0116   -0.0116
            Y     0.0157   -0.0034   -0.0329    0.0256   -0.0178   -0.0179
            Z     0.0132    0.0004   -0.0416    0.0334   -0.0125   -0.0126
 AT.  29 O  X    -0.0120   -0.0014    0.0293    0.0228   -0.0116    0.0116
            Y     0.0157    0.0034   -0.0329   -0.0256    0.0178   -0.0179
            Z     0.0132   -0.0004   -0.0416   -0.0334    0.0125   -0.0126
 AT.  30 O  X     0.0120   -0.0014   -0.0293    0.0228    0.0116    0.0116
            Y    -0.0157    0.0034    0.0329   -0.0256   -0.0178   -0.0179
            Z     0.0132    0.0004   -0.0416    0.0334    0.0125    0.0126
 AT.  31 O  X    -0.0120   -0.0014    0.0293    0.0228    0.0116   -0.0116
            Y    -0.0157   -0.0034    0.0329    0.0256    0.0178   -0.0179
            Z     0.0132   -0.0004   -0.0416   -0.0334   -0.0125    0.0126
 AT.  32 H  X    -0.0101    0.0110   -0.0056    0.0039    0.0000    0.0000
            Y     0.0000    0.0000    0.0000    0.0000    0.0027    0.0027
            Z    -0.0190    0.0246   -0.0222    0.0161    0.0000    0.0000
 AT.  33 H  X     0.0101    0.0110    0.0056    0.0039    0.0000    0.0000
            Y     0.0000    0.0000    0.0000    0.0000   -0.0027    0.0027
            Z    -0.0190   -0.0246   -0.0222   -0.0161    0.0000    0.0000

 FREQ(CM**-1)   1283.47   3903.02   3903.03

 AT.   1 SI X     0.0032    0.0000    0.0000
            Y     0.0000    0.0000    0.0000
            Z    -0.0011    0.0000    0.0000
 AT.   2 SI X    -0.0032    0.0000    0.0000
            Y     0.0000    0.0000    0.0000
            Z    -0.0011    0.0000    0.0000
 AT.   3 SI X     0.0001    0.0000    0.0000
            Y     0.0000    0.0000    0.0000
            Z    -0.0646    0.0000    0.0000
 AT.   4 SI X    -0.0001    0.0000    0.0000
            Y     0.0000    0.0000    0.0000
            Z    -0.0646    0.0000    0.0000
 AT.   5 O  X     0.0010    0.0000    0.0000
            Y     0.0000    0.0000    0.0000
            Z     0.0010    0.0000    0.0000
 AT.   6 O  X    -0.0010    0.0000    0.0000
            Y     0.0000    0.0000    0.0000
            Z     0.0010    0.0000    0.0000
 AT.   7 O  X     0.0000    0.0000    0.0000
            Y     0.0000    0.0000    0.0000
            Z     0.2184    0.0000    0.0000
 AT.   8 O  X    -0.0004    0.0000    0.0000
            Y     0.0015    0.0000    0.0000
            Z     0.0006    0.0000    0.0000
 AT.   9 O  X     0.0004    0.0000    0.0000
            Y     0.0015    0.0000    0.0000
            Z     0.0006    0.0000    0.0000
 AT.  10 O  X    -0.0004    0.0000    0.0000
            Y    -0.0015    0.0000    0.0000
            Z     0.0006    0.0000    0.0000
 AT.  11 O  X     0.0004    0.0000    0.0000
            Y    -0.0015    0.0000    0.0000
            Z     0.0006    0.0000    0.0000
 AT.  12 O  X     0.0000    0.0000    0.0000
            Y    -0.0007    0.0000    0.0000
            Z     0.0008    0.0000    0.0000
 AT.  13 O  X     0.0000    0.0000    0.0000
            Y    -0.0007    0.0000    0.0000
            Z     0.0008    0.0000    0.0000
 AT.  14 O  X     0.0000    0.0000    0.0000
            Y     0.0007    0.0000    0.0000
            Z     0.0008    0.0000    0.0000
 AT.  15 O  X     0.0000    0.0000    0.0000
            Y     0.0007    0.0000    0.0000
            Z     0.0008    0.0000    0.0000
 AT.  16 SI X    -0.0022    0.0000    0.0000
            Y    -0.0026    0.0000    0.0000
            Z    -0.0011    0.0000    0.0000
 AT.  17 SI X     0.0022    0.0000    0.0000
            Y    -0.0026    0.0000    0.0000
            Z    -0.0011    0.0000    0.0000
 AT.  18 SI X    -0.0022    0.0000    0.0000
            Y     0.0026    0.0000    0.0000
            Z    -0.0011    0.0000    0.0000
 AT.  19 SI X     0.0022    0.0000    0.0000
            Y     0.0026    0.0000    0.0000
            Z    -0.0011    0.0000    0.0000
 AT.  20 O  X     0.0007    0.0000    0.0000
            Y     0.0000    0.0000    0.0000
            Z     0.0006    0.0000    0.0000
 AT.  21 O  X    -0.0007    0.0000    0.0000
            Y     0.0000    0.0000    0.0000
            Z     0.0006    0.0000    0.0000
 AT.  22 SI X    -0.0001    0.0006   -0.0006
            Y     0.0000    0.0000    0.0000
            Z    -0.0001    0.0005   -0.0005
 AT.  23 SI X     0.0001   -0.0006   -0.0006
            Y     0.0000    0.0000    0.0000
            Z    -0.0001    0.0005    0.0005
 AT.  24 O  X    -0.0029   -0.0001    0.0001
            Y     0.0000    0.0000    0.0000
            Z     0.0018    0.0000    0.0000
 AT.  25 O  X     0.0029    0.0001    0.0001
            Y     0.0000    0.0000    0.0000
            Z     0.0018    0.0000    0.0000
 AT.  26 O  X     0.0000    0.0356   -0.0356
            Y     0.0000    0.0000    0.0000
            Z    -0.0004   -0.0240    0.0240
 AT.  27 O  X     0.0000   -0.0356   -0.0356
            Y     0.0000    0.0000    0.0000
            Z    -0.0004   -0.0240   -0.0240
 AT.  28 O  X     0.0021    0.0001   -0.0001
            Y     0.0023    0.0001   -0.0001
            Z     0.0019    0.0002   -0.0002
 AT.  29 O  X    -0.0021   -0.0001   -0.0001
            Y     0.0023    0.0001    0.0001
            Z     0.0019    0.0002    0.0002
 AT.  30 O  X     0.0021    0.0001   -0.0001
            Y    -0.0023   -0.0001    0.0001
            Z     0.0019    0.0002   -0.0002
 AT.  31 O  X    -0.0021   -0.0001   -0.0001
            Y    -0.0023   -0.0001   -0.0001
            Z     0.0019    0.0002    0.0002
 AT.  32 H  X     0.0002   -0.5802    0.5802
            Y     0.0000    0.0000    0.0000
            Z    -0.0001    0.3608   -0.3609
 AT.  33 H  X    -0.0002    0.5802    0.5802
            Y     0.0000    0.0000    0.0000
            Z    -0.0001    0.3608    0.3609

 *******************************************************************************

 HARMONIC VIBRATIONAL CONTRIBUTIONS TO THE TOTAL GIBBS FREE ENERGY AT GIVEN
 TEMPERATURE AND PRESSURE:

                          AU/CELL             EV/CELL                 KJ/MOL
 TOT ELECTRONIC:   -4476.724981728600 -121817.879854174900   -11753639.78314020
 ZERO PNT CORR :       0.137226227733       3.734115495370         360.28741014

 AT (T =  298.00 K, P =   0.10132500E+00 MPA):

                          AU/CELL             EV/CELL                 KJ/MOL
 THERMAL CORR  :       0.165091271851       4.492361894327         433.44707316
 FREE ENER CORR:      -0.054834458375      -1.492121470372        -143.96785017
 TOT FREE ENER :   -4476.477498687392 -121811.145498255600   -11752990.01650707

 OTHER THERMODINAMIC FUNCTIONS:

                      MHARTREE/(CELL*K)     MEV/(CELL*K)              J/(MOL*K)
 ENTROPY       :       0.184010113599       5.007169750622         483.11848517
 HEAT CAPACITY :       0.173088750443       4.709984350538         454.44445025

 *******************************************************************************
 TTTTTTTTTTTTTTTTTTTTTTTTTTTTTT END         TELAPSE        2.20 TCPU        0.45
 EEEEEEEEEE TERMINATION  DATE 21 08 2004 TIME 19:54:31.6
sab ago 21 19:54:31 CEST 2004
-rw-r--r--    1 ugliengo ugliengo    20216 ago 21 19:54 /home/ugliengo/tmp32027/fort.10
-rw-r--r--    1 ugliengo ugliengo     3984 ago 21 19:54 /home/ugliengo/tmp32027/fort.19
-rw-r--r--    1 ugliengo ugliengo  3304137 ago 21 19:54 /home/ugliengo/tmp32027/fort.20
lrwxrwxrwx    1 ugliengo ugliengo       27 ago 21 19:54 /home/ugliengo/tmp32027/fort.33 -> /home/ugliengo/tosoni/x.xyz
-rw-r--r--    1 ugliengo ugliengo     2038 ago 21 19:54 /home/ugliengo/tmp32027/fort.34
lrwxrwxrwx    1 ugliengo ugliengo       28 ago 21 19:54 /home/ugliengo/tmp32027/fort.65 -> /home/ugliengo/tosoni/x.out2
-rw-r--r--    1 ugliengo ugliengo        0 ago 21 19:54 /home/ugliengo/tmp32027/fort.9
-rw-r--r--    1 ugliengo ugliengo   163896 ago 21 19:54 /home/ugliengo/tmp32027/fort.93
-rw-r--r--    1 ugliengo ugliengo   644509 ago 21 19:54 /home/ugliengo/tmp32027/fort.94
