SiO2 , Siliceous Faujasite
CRYSTAL
0 0 0                   
227                  
21.53                   
5
14 .1265 -.0536 .0370  
8 .1059 -.1059 .0
8 -.0023 -.0023 .1410  
8 .1746 .1746 -.0378   
8 .1785 .1785 .3222    
TEST
END
      
 *******************************************************************************
 *                                                                             *
 *                                CRYSTAL06                                    *
 *                          develop 1.0 - cvs090524                            *
 *                          Sequential executable                              *
 *                                                                             *
 *            Compiled:  20 Jan 2010 10:29                                     *
 *            Xmake: Linux-ifort_pentium4                                      *
 *                                                                             *
 *                                                                             *
 *                              MAIN AUTHORS                                   *
 *                                                                             *
 *    R. DOVESI(1,10), V.R. SAUNDERS(2), C. ROETTI(1,10), R. ORLANDO (1,3),    *
 *  C.M. ZICOVICH-WILSON(1,4), F. PASCALE(5), B. CIVALLERI(1,10), K. DOLL(6),  *
 *       N.M. HARRISON(2,7), I. J. BUSH(2), Ph. D'ARCO(8), M. LLUNELL(9)       *
 *                                                                             *
 * (1) THEORETICAL CHEMISTRY GROUP - UNIVERSITA' DI TORINO - TORINO (ITALY)    *
 *      http://www.crystal.unito.it                                            *
 * (2) COMPUTATIONAL SCIENCE & ENGINEERING DEPARTMENT - CCLRC DARESBURY (UK)   *
 *     http://www.cse.clrc.ac.uk/cmg/CRYSTAL/                                  *
 * (3) UNIVERSITA' DEL PIEMONTE ORIENTALE - ALESSANDRIA (ITALY)                *
 * (4) UNIVERSIDAD AUTONOMA DEL ESTADO DE MORELOS - CUERNAVACA (MEXICO)        *
 * (5) UNIVERSITE' HENRI POINCARE' - NANCY (FRANCE)                            *
 * (6) MPI FUER FESTKOERPERFORSCHUNG - STUTTGART (GERMANY)                     *
 * (7) IMPERIAL COLLEGE - LONDON (UK)                                          *
 * (8) UNIVERSITE' PIERRE ET MARIE CURIE - PARIS (FRANCE)                      *
 * (9) UNIVERSIDAD DE BARCELONA - BARCELONA (SPAIN)                            *
 *(10) NIS - NANOSTRUCTURED INTERFACES AND SURFACES - TORINO (ITALY)           *
 *     http://www.crystal.unito.it                                             *
 *******************************************************************************
 EEEEEEEEEE STARTING  DATE 23 02 2010 TIME 12:19:22.8
 SiO2 , Siliceous Faujasite                                                      

 CRYSTAL CALCULATION
 (INPUT ACCORDING TO THE INTERNATIONAL TABLES FOR X-RAY CRYSTALLOGRAPHY)
 CRYSTAL FAMILY                       :  CUBIC       
 CRYSTAL CLASS  (GROTH - 1921)        :  CUBIC HEXAKISOCTAHEDRAL              

 SPACE GROUP (CENTROSYMMETRIC)        :  F D 3 M         

 LATTICE PARAMETERS  (ANGSTROMS AND DEGREES) - CONVENTIONAL CELL
        A           B           C        ALPHA        BETA       GAMMA
    21.53000    21.53000    21.53000    90.00000    90.00000    90.00000


 NUMBER OF IRREDUCIBLE ATOMS IN THE CONVENTIONAL CELL:    5

 INPUT COORDINATES

 ATOM AT. N.              COORDINATES
   1  14     1.265000000000E-01 -5.360000000000E-02  3.700000000000E-02
   2   8     1.059000000000E-01 -1.059000000000E-01  0.000000000000E+00
   3   8    -2.300000000000E-03 -2.300000000000E-03  1.410000000000E-01
   4   8     1.746000000000E-01  1.746000000000E-01 -3.780000000000E-02
   5   8     1.785000000000E-01  1.785000000000E-01  3.222000000000E-01

 *******************************************************************************

 << INFORMATION >>: FROM NOW ON, ALL COORDINATES REFER TO THE PRIMITIVE CELL

 *******************************************************************************

 LATTICE PARAMETERS  (ANGSTROMS AND DEGREES) - PRIMITIVE CELL
       A          B          C         ALPHA     BETA     GAMMA        VOLUME
   15.22401   15.22401   15.22401    60.00000  60.00000  60.00000   2495.008894

 COORDINATES OF THE EQUIVALENT ATOMS (FRACTIONARY UNITS)

 N. ATOM EQUIV AT. N.          X                  Y                  Z

   1   1   1   14 SI   -1.43100000000E-01  2.17100000000E-01  3.59000000000E-02
   2   1   2   14 SI    2.17100000000E-01 -1.43100000000E-01  3.90100000000E-01
   3   1   3   14 SI    3.90100000000E-01  3.59000000000E-02  2.17100000000E-01
   4   1   4   14 SI    3.59000000000E-02  3.90100000000E-01 -1.43100000000E-01
   5   1   5   14 SI    3.59000000000E-02 -1.43100000000E-01  2.17100000000E-01
   6   1   6   14 SI    2.17100000000E-01  3.59000000000E-02 -1.43100000000E-01
   7   1   7   14 SI   -1.43100000000E-01  3.59000000000E-02  3.90100000000E-01
   8   1   8   14 SI   -1.43100000000E-01  3.90100000000E-01  2.17100000000E-01
   9   1   9   14 SI    3.90100000000E-01  2.17100000000E-01 -1.43100000000E-01
  10   1  10   14 SI    3.59000000000E-02  2.17100000000E-01  3.90100000000E-01
  11   1  11   14 SI    2.17100000000E-01  3.90100000000E-01  3.59000000000E-02
  12   1  12   14 SI    3.90100000000E-01 -1.43100000000E-01  3.59000000000E-02
  13   1  13   14 SI   -2.17100000000E-01  1.43100000000E-01 -3.59000000000E-02
  14   1  14   14 SI    1.43100000000E-01 -2.17100000000E-01 -3.90100000000E-01
  15   1  15   14 SI   -3.59000000000E-02 -3.90100000000E-01 -2.17100000000E-01
  16   1  16   14 SI   -3.90100000000E-01 -3.59000000000E-02  1.43100000000E-01
  17   1  17   14 SI    1.43100000000E-01 -3.59000000000E-02 -2.17100000000E-01
  18   1  18   14 SI   -3.59000000000E-02 -2.17100000000E-01  1.43100000000E-01
  19   1  19   14 SI   -3.59000000000E-02  1.43100000000E-01 -3.90100000000E-01
  20   1  20   14 SI   -3.90100000000E-01  1.43100000000E-01 -2.17100000000E-01
  21   1  21   14 SI   -2.17100000000E-01 -3.90100000000E-01  1.43100000000E-01
  22   1  22   14 SI   -2.17100000000E-01 -3.59000000000E-02 -3.90100000000E-01
  23   1  23   14 SI   -3.90100000000E-01 -2.17100000000E-01 -3.59000000000E-02
  24   1  24   14 SI    1.43100000000E-01 -3.90100000000E-01 -3.59000000000E-02
  25   1  25   14 SI    1.43100000000E-01 -2.17100000000E-01 -3.59000000000E-02
  26   1  26   14 SI   -2.17100000000E-01  1.43100000000E-01 -3.90100000000E-01
  27   1  27   14 SI   -3.90100000000E-01 -3.59000000000E-02 -2.17100000000E-01
  28   1  28   14 SI   -3.59000000000E-02 -3.90100000000E-01  1.43100000000E-01
  29   1  29   14 SI   -3.59000000000E-02  1.43100000000E-01 -2.17100000000E-01
  30   1  30   14 SI   -2.17100000000E-01 -3.59000000000E-02  1.43100000000E-01
  31   1  31   14 SI    1.43100000000E-01 -3.59000000000E-02 -3.90100000000E-01
  32   1  32   14 SI    1.43100000000E-01 -3.90100000000E-01 -2.17100000000E-01
  33   1  33   14 SI   -3.90100000000E-01 -2.17100000000E-01  1.43100000000E-01
  34   1  34   14 SI   -3.59000000000E-02 -2.17100000000E-01 -3.90100000000E-01
  35   1  35   14 SI   -2.17100000000E-01 -3.90100000000E-01 -3.59000000000E-02
  36   1  36   14 SI   -3.90100000000E-01  1.43100000000E-01 -3.59000000000E-02
  37   1  37   14 SI    2.17100000000E-01 -1.43100000000E-01  3.59000000000E-02
  38   1  38   14 SI   -1.43100000000E-01  2.17100000000E-01  3.90100000000E-01
  39   1  39   14 SI    3.59000000000E-02  3.90100000000E-01  2.17100000000E-01
  40   1  40   14 SI    3.90100000000E-01  3.59000000000E-02 -1.43100000000E-01
  41   1  41   14 SI   -1.43100000000E-01  3.59000000000E-02  2.17100000000E-01
  42   1  42   14 SI    3.59000000000E-02  2.17100000000E-01 -1.43100000000E-01
  43   1  43   14 SI    3.59000000000E-02 -1.43100000000E-01  3.90100000000E-01
  44   1  44   14 SI    3.90100000000E-01 -1.43100000000E-01  2.17100000000E-01
  45   1  45   14 SI    2.17100000000E-01  3.90100000000E-01 -1.43100000000E-01
  46   1  46   14 SI    2.17100000000E-01  3.59000000000E-02  3.90100000000E-01
  47   1  47   14 SI    3.90100000000E-01  2.17100000000E-01  3.59000000000E-02
  48   1  48   14 SI   -1.43100000000E-01  3.90100000000E-01  3.59000000000E-02

  49   2   1    8 O    -2.11800000000E-01  2.11800000000E-01  0.00000000000E+00
  50   2   2    8 O     2.11800000000E-01 -2.11800000000E-01 -5.00000000000E-01
  51   2   3    8 O    -5.00000000000E-01  0.00000000000E+00  2.11800000000E-01
  52   2   4    8 O     0.00000000000E+00 -5.00000000000E-01 -2.11800000000E-01
  53   2   5    8 O     0.00000000000E+00 -2.11800000000E-01  2.11800000000E-01
  54   2   6    8 O     2.11800000000E-01  0.00000000000E+00 -2.11800000000E-01
  55   2   7    8 O    -2.11800000000E-01  0.00000000000E+00 -5.00000000000E-01
  56   2   8    8 O    -2.11800000000E-01 -5.00000000000E-01  2.11800000000E-01
  57   2   9    8 O    -5.00000000000E-01  2.11800000000E-01 -2.11800000000E-01
  58   2  10    8 O     0.00000000000E+00  2.11800000000E-01 -5.00000000000E-01
  59   2  11    8 O     2.11800000000E-01 -5.00000000000E-01  0.00000000000E+00
  60   2  12    8 O    -5.00000000000E-01 -2.11800000000E-01  0.00000000000E+00
  61   2  13    8 O     2.11800000000E-01 -2.11800000000E-01  0.00000000000E+00
  62   2  14    8 O    -2.11800000000E-01  2.11800000000E-01 -5.00000000000E-01
  63   2  15    8 O    -5.00000000000E-01  0.00000000000E+00 -2.11800000000E-01
  64   2  16    8 O     0.00000000000E+00 -5.00000000000E-01  2.11800000000E-01
  65   2  17    8 O     0.00000000000E+00  2.11800000000E-01 -2.11800000000E-01
  66   2  18    8 O    -2.11800000000E-01  0.00000000000E+00  2.11800000000E-01
  67   2  19    8 O     2.11800000000E-01  0.00000000000E+00 -5.00000000000E-01
  68   2  20    8 O     2.11800000000E-01 -5.00000000000E-01 -2.11800000000E-01
  69   2  21    8 O    -5.00000000000E-01 -2.11800000000E-01  2.11800000000E-01
  70   2  22    8 O     0.00000000000E+00 -2.11800000000E-01 -5.00000000000E-01
  71   2  23    8 O    -2.11800000000E-01 -5.00000000000E-01  0.00000000000E+00
  72   2  24    8 O    -5.00000000000E-01  2.11800000000E-01  0.00000000000E+00

  73   3   1    8 O     1.41000000000E-01  1.41000000000E-01 -1.45600000000E-01
  74   3   2    8 O     1.41000000000E-01  1.41000000000E-01  3.63600000000E-01
  75   3   3    8 O     3.63600000000E-01 -1.45600000000E-01  1.41000000000E-01
  76   3   4    8 O    -1.45600000000E-01  3.63600000000E-01  1.41000000000E-01
  77   3   5    8 O    -1.45600000000E-01  1.41000000000E-01  1.41000000000E-01
  78   3   6    8 O     1.41000000000E-01 -1.45600000000E-01  1.41000000000E-01
  79   3   7    8 O     1.41000000000E-01 -1.45600000000E-01  3.63600000000E-01
  80   3   8    8 O     1.41000000000E-01  3.63600000000E-01  1.41000000000E-01
  81   3   9    8 O     3.63600000000E-01  1.41000000000E-01  1.41000000000E-01
  82   3  10    8 O    -1.45600000000E-01  1.41000000000E-01  3.63600000000E-01
  83   3  11    8 O     1.41000000000E-01  3.63600000000E-01 -1.45600000000E-01
  84   3  12    8 O     3.63600000000E-01  1.41000000000E-01 -1.45600000000E-01
  85   3  13    8 O    -1.41000000000E-01 -1.41000000000E-01  1.45600000000E-01
  86   3  14    8 O    -1.41000000000E-01 -1.41000000000E-01 -3.63600000000E-01
  87   3  15    8 O     1.45600000000E-01 -3.63600000000E-01 -1.41000000000E-01
  88   3  16    8 O    -3.63600000000E-01  1.45600000000E-01 -1.41000000000E-01
  89   3  17    8 O    -1.41000000000E-01  1.45600000000E-01 -1.41000000000E-01
  90   3  18    8 O     1.45600000000E-01 -1.41000000000E-01 -1.41000000000E-01
  91   3  19    8 O     1.45600000000E-01 -1.41000000000E-01 -3.63600000000E-01
  92   3  20    8 O    -3.63600000000E-01 -1.41000000000E-01 -1.41000000000E-01
  93   3  21    8 O    -1.41000000000E-01 -3.63600000000E-01 -1.41000000000E-01
  94   3  22    8 O    -1.41000000000E-01  1.45600000000E-01 -3.63600000000E-01
  95   3  23    8 O    -3.63600000000E-01 -1.41000000000E-01  1.45600000000E-01
  96   3  24    8 O    -1.41000000000E-01 -3.63600000000E-01  1.45600000000E-01

  97   4   1    8 O    -3.78000000000E-02 -3.78000000000E-02  3.87000000000E-01
  98   4   2    8 O    -3.78000000000E-02 -3.78000000000E-02  1.88600000000E-01
  99   4   3    8 O     1.88600000000E-01  3.87000000000E-01 -3.78000000000E-02
 100   4   4    8 O     3.87000000000E-01  1.88600000000E-01 -3.78000000000E-02
 101   4   5    8 O     3.87000000000E-01 -3.78000000000E-02 -3.78000000000E-02
 102   4   6    8 O    -3.78000000000E-02  3.87000000000E-01 -3.78000000000E-02
 103   4   7    8 O    -3.78000000000E-02  3.87000000000E-01  1.88600000000E-01
 104   4   8    8 O    -3.78000000000E-02  1.88600000000E-01 -3.78000000000E-02
 105   4   9    8 O     1.88600000000E-01 -3.78000000000E-02 -3.78000000000E-02
 106   4  10    8 O     3.87000000000E-01 -3.78000000000E-02  1.88600000000E-01
 107   4  11    8 O    -3.78000000000E-02  1.88600000000E-01  3.87000000000E-01
 108   4  12    8 O     1.88600000000E-01 -3.78000000000E-02  3.87000000000E-01
 109   4  13    8 O     3.78000000000E-02  3.78000000000E-02 -3.87000000000E-01
 110   4  14    8 O     3.78000000000E-02  3.78000000000E-02 -1.88600000000E-01
 111   4  15    8 O    -3.87000000000E-01 -1.88600000000E-01  3.78000000000E-02
 112   4  16    8 O    -1.88600000000E-01 -3.87000000000E-01  3.78000000000E-02
 113   4  17    8 O     3.78000000000E-02 -3.87000000000E-01  3.78000000000E-02
 114   4  18    8 O    -3.87000000000E-01  3.78000000000E-02  3.78000000000E-02
 115   4  19    8 O    -3.87000000000E-01  3.78000000000E-02 -1.88600000000E-01
 116   4  20    8 O    -1.88600000000E-01  3.78000000000E-02  3.78000000000E-02
 117   4  21    8 O     3.78000000000E-02 -1.88600000000E-01  3.78000000000E-02
 118   4  22    8 O     3.78000000000E-02 -3.87000000000E-01 -1.88600000000E-01
 119   4  23    8 O    -1.88600000000E-01  3.78000000000E-02 -3.87000000000E-01
 120   4  24    8 O     3.78000000000E-02 -1.88600000000E-01 -3.87000000000E-01

 121   5   1    8 O     3.22200000000E-01  3.22200000000E-01  3.48000000000E-02
 122   5   2    8 O     3.22200000000E-01  3.22200000000E-01 -1.79200000000E-01
 123   5   3    8 O    -1.79200000000E-01  3.48000000000E-02  3.22200000000E-01
 124   5   4    8 O     3.48000000000E-02 -1.79200000000E-01  3.22200000000E-01
 125   5   5    8 O     3.48000000000E-02  3.22200000000E-01  3.22200000000E-01
 126   5   6    8 O     3.22200000000E-01  3.48000000000E-02  3.22200000000E-01
 127   5   7    8 O     3.22200000000E-01  3.48000000000E-02 -1.79200000000E-01
 128   5   8    8 O     3.22200000000E-01 -1.79200000000E-01  3.22200000000E-01
 129   5   9    8 O    -1.79200000000E-01  3.22200000000E-01  3.22200000000E-01
 130   5  10    8 O     3.48000000000E-02  3.22200000000E-01 -1.79200000000E-01
 131   5  11    8 O     3.22200000000E-01 -1.79200000000E-01  3.48000000000E-02
 132   5  12    8 O    -1.79200000000E-01  3.22200000000E-01  3.48000000000E-02
 133   5  13    8 O    -3.22200000000E-01 -3.22200000000E-01 -3.48000000000E-02
 134   5  14    8 O    -3.22200000000E-01 -3.22200000000E-01  1.79200000000E-01
 135   5  15    8 O    -3.48000000000E-02  1.79200000000E-01 -3.22200000000E-01
 136   5  16    8 O     1.79200000000E-01 -3.48000000000E-02 -3.22200000000E-01
 137   5  17    8 O    -3.22200000000E-01 -3.48000000000E-02 -3.22200000000E-01
 138   5  18    8 O    -3.48000000000E-02 -3.22200000000E-01 -3.22200000000E-01
 139   5  19    8 O    -3.48000000000E-02 -3.22200000000E-01  1.79200000000E-01
 140   5  20    8 O     1.79200000000E-01 -3.22200000000E-01 -3.22200000000E-01
 141   5  21    8 O    -3.22200000000E-01  1.79200000000E-01 -3.22200000000E-01
 142   5  22    8 O    -3.22200000000E-01 -3.48000000000E-02  1.79200000000E-01
 143   5  23    8 O     1.79200000000E-01 -3.22200000000E-01 -3.48000000000E-02
 144   5  24    8 O    -3.22200000000E-01  1.79200000000E-01 -3.48000000000E-02

 NUMBER OF SYMMETRY OPERATORS         :   48
 *******************************************************************************
 * GEOMETRY EDITING - INPUT COORDINATES ARE GIVEN IN ANGSTROM          
 *******************************************************************************

 GEOMETRY NOW FULLY CONSISTENT WITH THE GROUP

 GCALCO - MAX INDICES DIRECT LATTICE VECTOR    14    14    14
 NO.OF VECTORS CREATED 6999 STARS  105 RMAX   304.46468 BOHR

 GEOMETRY FOR WAVE FUNCTION - DIMENSIONALITY OF THE SYSTEM    3
 (NON PERIODIC DIRECTION: LATTICE PARAMETER FORMALLY SET TO 500)
 *******************************************************************************
 LATTICE PARAMETERS (ANGSTROMS AND DEGREES) - BOHR = 0.5291772083 ANGSTROM
 PRIMITIVE CELL - CENTRING CODE 5/0 VOLUME=  2495.008894 - DENSITY  1.916 g/cm^3
         A              B              C           ALPHA      BETA       GAMMA 
    15.22400900    15.22400900    15.22400900    60.000000  60.000000  60.000000
 *******************************************************************************
 ATOMS IN THE ASYMMETRIC UNIT    5 - ATOMS IN THE UNIT CELL:  144
     ATOM              X/A                 Y/B                 Z/C    
 *******************************************************************************
   1 T  14 SI   -1.431000000000E-01  2.171000000000E-01  3.590000000000E-02
   2 F  14 SI    2.171000000000E-01 -1.431000000000E-01  3.901000000000E-01
   3 F  14 SI    3.901000000000E-01  3.590000000000E-02  2.171000000000E-01
   4 F  14 SI    3.590000000000E-02  3.901000000000E-01 -1.431000000000E-01
   5 F  14 SI    3.590000000000E-02 -1.431000000000E-01  2.171000000000E-01
   6 F  14 SI    2.171000000000E-01  3.590000000000E-02 -1.431000000000E-01
   7 F  14 SI   -1.431000000000E-01  3.590000000000E-02  3.901000000000E-01
   8 F  14 SI   -1.431000000000E-01  3.901000000000E-01  2.171000000000E-01
   9 F  14 SI    3.901000000000E-01  2.171000000000E-01 -1.431000000000E-01
  10 F  14 SI    3.590000000000E-02  2.171000000000E-01  3.901000000000E-01
  11 F  14 SI    2.171000000000E-01  3.901000000000E-01  3.590000000000E-02
  12 F  14 SI    3.901000000000E-01 -1.431000000000E-01  3.590000000000E-02
  13 F  14 SI   -2.171000000000E-01  1.431000000000E-01 -3.590000000000E-02
  14 F  14 SI    1.431000000000E-01 -2.171000000000E-01 -3.901000000000E-01
  15 F  14 SI   -3.590000000000E-02 -3.901000000000E-01 -2.171000000000E-01
  16 F  14 SI   -3.901000000000E-01 -3.590000000000E-02  1.431000000000E-01
  17 F  14 SI    1.431000000000E-01 -3.590000000000E-02 -2.171000000000E-01
  18 F  14 SI   -3.590000000000E-02 -2.171000000000E-01  1.431000000000E-01
  19 F  14 SI   -3.590000000000E-02  1.431000000000E-01 -3.901000000000E-01
  20 F  14 SI   -3.901000000000E-01  1.431000000000E-01 -2.171000000000E-01
  21 F  14 SI   -2.171000000000E-01 -3.901000000000E-01  1.431000000000E-01
  22 F  14 SI   -2.171000000000E-01 -3.590000000000E-02 -3.901000000000E-01
  23 F  14 SI   -3.901000000000E-01 -2.171000000000E-01 -3.590000000000E-02
  24 F  14 SI    1.431000000000E-01 -3.901000000000E-01 -3.590000000000E-02
  25 F  14 SI    1.431000000000E-01 -2.171000000000E-01 -3.590000000000E-02
  26 F  14 SI   -2.171000000000E-01  1.431000000000E-01 -3.901000000000E-01
  27 F  14 SI   -3.901000000000E-01 -3.590000000000E-02 -2.171000000000E-01
  28 F  14 SI   -3.590000000000E-02 -3.901000000000E-01  1.431000000000E-01
  29 F  14 SI   -3.590000000000E-02  1.431000000000E-01 -2.171000000000E-01
  30 F  14 SI   -2.171000000000E-01 -3.590000000000E-02  1.431000000000E-01
  31 F  14 SI    1.431000000000E-01 -3.590000000000E-02 -3.901000000000E-01
  32 F  14 SI    1.431000000000E-01 -3.901000000000E-01 -2.171000000000E-01
  33 F  14 SI   -3.901000000000E-01 -2.171000000000E-01  1.431000000000E-01
  34 F  14 SI   -3.590000000000E-02 -2.171000000000E-01 -3.901000000000E-01
  35 F  14 SI   -2.171000000000E-01 -3.901000000000E-01 -3.590000000000E-02
  36 F  14 SI   -3.901000000000E-01  1.431000000000E-01 -3.590000000000E-02
  37 F  14 SI    2.171000000000E-01 -1.431000000000E-01  3.590000000000E-02
  38 F  14 SI   -1.431000000000E-01  2.171000000000E-01  3.901000000000E-01
  39 F  14 SI    3.590000000000E-02  3.901000000000E-01  2.171000000000E-01
  40 F  14 SI    3.901000000000E-01  3.590000000000E-02 -1.431000000000E-01
  41 F  14 SI   -1.431000000000E-01  3.590000000000E-02  2.171000000000E-01
  42 F  14 SI    3.590000000000E-02  2.171000000000E-01 -1.431000000000E-01
  43 F  14 SI    3.590000000000E-02 -1.431000000000E-01  3.901000000000E-01
  44 F  14 SI    3.901000000000E-01 -1.431000000000E-01  2.171000000000E-01
  45 F  14 SI    2.171000000000E-01  3.901000000000E-01 -1.431000000000E-01
  46 F  14 SI    2.171000000000E-01  3.590000000000E-02  3.901000000000E-01
  47 F  14 SI    3.901000000000E-01  2.171000000000E-01  3.590000000000E-02
  48 F  14 SI   -1.431000000000E-01  3.901000000000E-01  3.590000000000E-02
  49 T   8 O    -2.118000000000E-01  2.118000000000E-01  0.000000000000E+00
  50 F   8 O     2.118000000000E-01 -2.118000000000E-01 -5.000000000000E-01
  51 F   8 O     5.000000000000E-01 -8.326672684689E-17  2.118000000000E-01
  52 F   8 O     8.326672684689E-17 -5.000000000000E-01 -2.118000000000E-01
  53 F   8 O     0.000000000000E+00 -2.118000000000E-01  2.118000000000E-01
  54 F   8 O     2.118000000000E-01  1.387778780781E-17 -2.118000000000E-01
  55 F   8 O    -2.118000000000E-01 -2.775557561563E-17 -5.000000000000E-01
  56 F   8 O    -2.118000000000E-01 -5.000000000000E-01  2.118000000000E-01
  57 F   8 O     5.000000000000E-01  2.118000000000E-01 -2.118000000000E-01
  58 F   8 O    -2.775557561563E-17  2.118000000000E-01  5.000000000000E-01
  59 F   8 O     2.118000000000E-01 -5.000000000000E-01  0.000000000000E+00
  60 F   8 O     5.000000000000E-01 -2.118000000000E-01 -8.326672684689E-17
  61 F   8 O     2.118000000000E-01 -2.118000000000E-01  7.952392248350E-18
  62 F   8 O    -2.118000000000E-01  2.118000000000E-01  5.000000000000E-01
  63 F   8 O    -5.000000000000E-01  5.551115123126E-17 -2.118000000000E-01
  64 F   8 O     0.000000000000E+00 -5.000000000000E-01  2.118000000000E-01
  65 F   8 O     0.000000000000E+00  2.118000000000E-01 -2.118000000000E-01
  66 F   8 O    -2.118000000000E-01 -1.387778780781E-17  2.118000000000E-01
  67 F   8 O     2.118000000000E-01  0.000000000000E+00 -5.000000000000E-01
  68 F   8 O     2.118000000000E-01 -5.000000000000E-01 -2.118000000000E-01
  69 F   8 O    -5.000000000000E-01 -2.118000000000E-01  2.118000000000E-01
  70 F   8 O     1.387778780781E-17 -2.118000000000E-01 -5.000000000000E-01
  71 F   8 O    -2.118000000000E-01 -5.000000000000E-01  0.000000000000E+00
  72 F   8 O    -5.000000000000E-01  2.118000000000E-01  5.551115123126E-17
  73 T   8 O     1.410000000000E-01  1.410000000000E-01 -1.456000000000E-01
  74 F   8 O     1.410000000000E-01  1.410000000000E-01  3.636000000000E-01
  75 F   8 O     3.636000000000E-01 -1.456000000000E-01  1.410000000000E-01
  76 F   8 O    -1.456000000000E-01  3.636000000000E-01  1.410000000000E-01
  77 F   8 O    -1.456000000000E-01  1.410000000000E-01  1.410000000000E-01
  78 F   8 O     1.410000000000E-01 -1.456000000000E-01  1.410000000000E-01
  79 F   8 O     1.410000000000E-01 -1.456000000000E-01  3.636000000000E-01
  80 F   8 O     1.410000000000E-01  3.636000000000E-01  1.410000000000E-01
  81 F   8 O     3.636000000000E-01  1.410000000000E-01  1.410000000000E-01
  82 F   8 O    -1.456000000000E-01  1.410000000000E-01  3.636000000000E-01
  83 F   8 O     1.410000000000E-01  3.636000000000E-01 -1.456000000000E-01
  84 F   8 O     3.636000000000E-01  1.410000000000E-01 -1.456000000000E-01
  85 F   8 O    -1.410000000000E-01 -1.410000000000E-01  1.456000000000E-01
  86 F   8 O    -1.410000000000E-01 -1.410000000000E-01 -3.636000000000E-01
  87 F   8 O     1.456000000000E-01 -3.636000000000E-01 -1.410000000000E-01
  88 F   8 O    -3.636000000000E-01  1.456000000000E-01 -1.410000000000E-01
  89 F   8 O    -1.410000000000E-01  1.456000000000E-01 -1.410000000000E-01
  90 F   8 O     1.456000000000E-01 -1.410000000000E-01 -1.410000000000E-01
  91 F   8 O     1.456000000000E-01 -1.410000000000E-01 -3.636000000000E-01
  92 F   8 O    -3.636000000000E-01 -1.410000000000E-01 -1.410000000000E-01
  93 F   8 O    -1.410000000000E-01 -3.636000000000E-01 -1.410000000000E-01
  94 F   8 O    -1.410000000000E-01  1.456000000000E-01 -3.636000000000E-01
  95 F   8 O    -3.636000000000E-01 -1.410000000000E-01  1.456000000000E-01
  96 F   8 O    -1.410000000000E-01 -3.636000000000E-01  1.456000000000E-01
  97 T   8 O    -3.780000000000E-02 -3.780000000000E-02  3.870000000000E-01
  98 F   8 O    -3.780000000000E-02 -3.780000000000E-02  1.886000000000E-01
  99 F   8 O     1.886000000000E-01  3.870000000000E-01 -3.780000000000E-02
 100 F   8 O     3.870000000000E-01  1.886000000000E-01 -3.780000000000E-02
 101 F   8 O     3.870000000000E-01 -3.780000000000E-02 -3.780000000000E-02
 102 F   8 O    -3.780000000000E-02  3.870000000000E-01 -3.780000000000E-02
 103 F   8 O    -3.780000000000E-02  3.870000000000E-01  1.886000000000E-01
 104 F   8 O    -3.780000000000E-02  1.886000000000E-01 -3.780000000000E-02
 105 F   8 O     1.886000000000E-01 -3.780000000000E-02 -3.780000000000E-02
 106 F   8 O     3.870000000000E-01 -3.780000000000E-02  1.886000000000E-01
 107 F   8 O    -3.780000000000E-02  1.886000000000E-01  3.870000000000E-01
 108 F   8 O     1.886000000000E-01 -3.780000000000E-02  3.870000000000E-01
 109 F   8 O     3.780000000000E-02  3.780000000000E-02 -3.870000000000E-01
 110 F   8 O     3.780000000000E-02  3.780000000000E-02 -1.886000000000E-01
 111 F   8 O    -3.870000000000E-01 -1.886000000000E-01  3.780000000000E-02
 112 F   8 O    -1.886000000000E-01 -3.870000000000E-01  3.780000000000E-02
 113 F   8 O     3.780000000000E-02 -3.870000000000E-01  3.780000000000E-02
 114 F   8 O    -3.870000000000E-01  3.780000000000E-02  3.780000000000E-02
 115 F   8 O    -3.870000000000E-01  3.780000000000E-02 -1.886000000000E-01
 116 F   8 O    -1.886000000000E-01  3.780000000000E-02  3.780000000000E-02
 117 F   8 O     3.780000000000E-02 -1.886000000000E-01  3.780000000000E-02
 118 F   8 O     3.780000000000E-02 -3.870000000000E-01 -1.886000000000E-01
 119 F   8 O    -1.886000000000E-01  3.780000000000E-02 -3.870000000000E-01
 120 F   8 O     3.780000000000E-02 -1.886000000000E-01 -3.870000000000E-01
 121 T   8 O     3.222000000000E-01  3.222000000000E-01  3.480000000000E-02
 122 F   8 O     3.222000000000E-01  3.222000000000E-01 -1.792000000000E-01
 123 F   8 O    -1.792000000000E-01  3.480000000000E-02  3.222000000000E-01
 124 F   8 O     3.480000000000E-02 -1.792000000000E-01  3.222000000000E-01
 125 F   8 O     3.480000000000E-02  3.222000000000E-01  3.222000000000E-01
 126 F   8 O     3.222000000000E-01  3.480000000000E-02  3.222000000000E-01
 127 F   8 O     3.222000000000E-01  3.480000000000E-02 -1.792000000000E-01
 128 F   8 O     3.222000000000E-01 -1.792000000000E-01  3.222000000000E-01
 129 F   8 O    -1.792000000000E-01  3.222000000000E-01  3.222000000000E-01
 130 F   8 O     3.480000000000E-02  3.222000000000E-01 -1.792000000000E-01
 131 F   8 O     3.222000000000E-01 -1.792000000000E-01  3.480000000000E-02
 132 F   8 O    -1.792000000000E-01  3.222000000000E-01  3.480000000000E-02
 133 F   8 O    -3.222000000000E-01 -3.222000000000E-01 -3.480000000000E-02
 134 F   8 O    -3.222000000000E-01 -3.222000000000E-01  1.792000000000E-01
 135 F   8 O    -3.480000000000E-02  1.792000000000E-01 -3.222000000000E-01
 136 F   8 O     1.792000000000E-01 -3.480000000000E-02 -3.222000000000E-01
 137 F   8 O    -3.222000000000E-01 -3.480000000000E-02 -3.222000000000E-01
 138 F   8 O    -3.480000000000E-02 -3.222000000000E-01 -3.222000000000E-01
 139 F   8 O    -3.480000000000E-02 -3.222000000000E-01  1.792000000000E-01
 140 F   8 O     1.792000000000E-01 -3.222000000000E-01 -3.222000000000E-01
 141 F   8 O    -3.222000000000E-01  1.792000000000E-01 -3.222000000000E-01
 142 F   8 O    -3.222000000000E-01 -3.480000000000E-02  1.792000000000E-01
 143 F   8 O     1.792000000000E-01 -3.222000000000E-01 -3.480000000000E-02
 144 F   8 O    -3.222000000000E-01  1.792000000000E-01 -3.480000000000E-02

 TRANSFORMATION MATRIX PRIMITIVE-CRYSTALLOGRAPHIC CELL
 -1.0000  1.0000  1.0000  1.0000 -1.0000  1.0000  1.0000  1.0000 -1.0000

 *******************************************************************************
 CRYSTALLOGRAPHIC CELL (VOLUME=       9980.03557700)
         A              B              C           ALPHA      BETA       GAMMA 
    21.53000000    21.53000000    21.53000000    90.000000  90.000000  90.000000

 COORDINATES IN THE CRYSTALLOGRAPHIC CELL
     ATOM              X/A                 Y/B                 Z/C    
 *******************************************************************************
   1 T  14 SI    1.265000000000E-01 -5.360000000000E-02  3.700000000000E-02
   2 F  14 SI    1.235000000000E-01  3.036000000000E-01  3.700000000000E-02
   3 F  14 SI    1.265000000000E-01 -1.964000000000E-01 -2.870000000000E-01
   4 F  14 SI    1.235000000000E-01 -5.360000000000E-02  2.130000000000E-01
   5 F  14 SI    3.700000000000E-02  1.265000000000E-01 -5.360000000000E-02
   6 F  14 SI   -5.360000000000E-02  3.700000000000E-02  1.265000000000E-01
   7 F  14 SI    2.130000000000E-01  1.235000000000E-01 -5.360000000000E-02
   8 F  14 SI    3.036000000000E-01  3.700000000000E-02  1.235000000000E-01
   9 F  14 SI    3.700000000000E-02  1.235000000000E-01  3.036000000000E-01
  10 F  14 SI   -1.964000000000E-01 -2.870000000000E-01  1.265000000000E-01
  11 F  14 SI   -2.870000000000E-01  1.265000000000E-01 -1.964000000000E-01
  12 F  14 SI   -5.360000000000E-02  2.130000000000E-01  1.235000000000E-01
  13 F  14 SI    5.360000000000E-02 -1.265000000000E-01 -3.700000000000E-02
  14 F  14 SI   -3.036000000000E-01 -1.235000000000E-01 -3.700000000000E-02
  15 F  14 SI    1.964000000000E-01 -1.265000000000E-01  2.870000000000E-01
  16 F  14 SI    5.360000000000E-02 -1.235000000000E-01 -2.130000000000E-01
  17 F  14 SI   -1.265000000000E-01 -3.700000000000E-02  5.360000000000E-02
  18 F  14 SI   -3.700000000000E-02  5.360000000000E-02 -1.265000000000E-01
  19 F  14 SI   -1.235000000000E-01 -2.130000000000E-01  5.360000000000E-02
  20 F  14 SI   -3.700000000000E-02 -3.036000000000E-01 -1.235000000000E-01
  21 F  14 SI   -1.235000000000E-01 -3.700000000000E-02 -3.036000000000E-01
  22 F  14 SI    2.870000000000E-01  1.964000000000E-01 -1.265000000000E-01
  23 F  14 SI   -1.265000000000E-01  2.870000000000E-01  1.964000000000E-01
  24 F  14 SI   -2.130000000000E-01  5.360000000000E-02 -1.235000000000E-01
  25 F  14 SI   -1.265000000000E-01  5.360000000000E-02 -3.700000000000E-02
  26 F  14 SI   -1.235000000000E-01 -3.036000000000E-01 -3.700000000000E-02
  27 F  14 SI   -1.265000000000E-01  1.964000000000E-01  2.870000000000E-01
  28 F  14 SI   -1.235000000000E-01  5.360000000000E-02 -2.130000000000E-01
  29 F  14 SI   -3.700000000000E-02 -1.265000000000E-01  5.360000000000E-02
  30 F  14 SI    5.360000000000E-02 -3.700000000000E-02 -1.265000000000E-01
  31 F  14 SI   -2.130000000000E-01 -1.235000000000E-01  5.360000000000E-02
  32 F  14 SI   -3.036000000000E-01 -3.700000000000E-02 -1.235000000000E-01
  33 F  14 SI   -3.700000000000E-02 -1.235000000000E-01 -3.036000000000E-01
  34 F  14 SI    1.964000000000E-01  2.870000000000E-01 -1.265000000000E-01
  35 F  14 SI    2.870000000000E-01 -1.265000000000E-01  1.964000000000E-01
  36 F  14 SI    5.360000000000E-02 -2.130000000000E-01 -1.235000000000E-01
  37 F  14 SI   -5.360000000000E-02  1.265000000000E-01  3.700000000000E-02
  38 F  14 SI    3.036000000000E-01  1.235000000000E-01  3.700000000000E-02
  39 F  14 SI   -1.964000000000E-01  1.265000000000E-01 -2.870000000000E-01
  40 F  14 SI   -5.360000000000E-02  1.235000000000E-01  2.130000000000E-01
  41 F  14 SI    1.265000000000E-01  3.700000000000E-02 -5.360000000000E-02
  42 F  14 SI    3.700000000000E-02 -5.360000000000E-02  1.265000000000E-01
  43 F  14 SI    1.235000000000E-01  2.130000000000E-01 -5.360000000000E-02
  44 F  14 SI    3.700000000000E-02  3.036000000000E-01  1.235000000000E-01
  45 F  14 SI    1.235000000000E-01  3.700000000000E-02  3.036000000000E-01
  46 F  14 SI   -2.870000000000E-01 -1.964000000000E-01  1.265000000000E-01
  47 F  14 SI    1.265000000000E-01 -2.870000000000E-01 -1.964000000000E-01
  48 F  14 SI    2.130000000000E-01 -5.360000000000E-02  1.235000000000E-01
  49 T   8 O     1.059000000000E-01 -1.059000000000E-01  0.000000000000E+00
  50 F   8 O     1.441000000000E-01  3.559000000000E-01 -4.366036011233E-17
  51 F   8 O     1.059000000000E-01  3.559000000000E-01  2.500000000000E-01
  52 F   8 O     1.441000000000E-01 -1.059000000000E-01  2.500000000000E-01
  53 F   8 O     0.000000000000E+00  1.059000000000E-01 -1.059000000000E-01
  54 F   8 O    -1.059000000000E-01 -2.183018005616E-17  1.059000000000E-01
  55 F   8 O     2.500000000000E-01  1.441000000000E-01 -1.059000000000E-01
  56 F   8 O     3.559000000000E-01  4.366036011233E-17  1.441000000000E-01
  57 F   8 O     0.000000000000E+00  1.441000000000E-01  3.559000000000E-01
  58 F   8 O     3.559000000000E-01  2.500000000000E-01  1.059000000000E-01
  59 F   8 O     2.500000000000E-01  1.059000000000E-01  3.559000000000E-01
  60 F   8 O    -1.059000000000E-01  2.500000000000E-01  1.441000000000E-01
  61 F   8 O    -1.059000000000E-01  1.059000000000E-01 -2.183018005616E-17
  62 F   8 O     3.559000000000E-01  1.441000000000E-01  4.366036011233E-17
  63 F   8 O    -1.059000000000E-01  1.441000000000E-01  2.500000000000E-01
  64 F   8 O     3.559000000000E-01  1.059000000000E-01  2.500000000000E-01
  65 F   8 O     0.000000000000E+00 -1.059000000000E-01  1.059000000000E-01
  66 F   8 O     1.059000000000E-01  2.183018005616E-17 -1.059000000000E-01
  67 F   8 O     2.500000000000E-01  3.559000000000E-01  1.059000000000E-01
  68 F   8 O     1.441000000000E-01 -6.549054016849E-17  3.559000000000E-01
  69 F   8 O     0.000000000000E+00  3.559000000000E-01  1.441000000000E-01
  70 F   8 O     1.441000000000E-01  2.500000000000E-01 -1.059000000000E-01
  71 F   8 O     2.500000000000E-01 -1.059000000000E-01  1.441000000000E-01
  72 F   8 O     1.059000000000E-01  2.500000000000E-01  3.559000000000E-01
  73 T   8 O    -2.300000000000E-03 -2.300000000000E-03  1.410000000000E-01
  74 F   8 O    -2.477000000000E-01 -2.477000000000E-01  1.410000000000E-01
  75 F   8 O    -2.300000000000E-03  2.523000000000E-01  1.090000000000E-01
  76 F   8 O     2.523000000000E-01 -2.300000000000E-03  1.090000000000E-01
  77 F   8 O     1.410000000000E-01 -2.300000000000E-03 -2.300000000000E-03
  78 F   8 O    -2.300000000000E-03  1.410000000000E-01 -2.300000000000E-03
  79 F   8 O     1.090000000000E-01  2.523000000000E-01 -2.300000000000E-03
  80 F   8 O    -2.477000000000E-01  1.410000000000E-01 -2.477000000000E-01
  81 F   8 O     1.410000000000E-01 -2.477000000000E-01 -2.477000000000E-01
  82 F   8 O     2.523000000000E-01  1.090000000000E-01 -2.300000000000E-03
  83 F   8 O     1.090000000000E-01 -2.300000000000E-03  2.523000000000E-01
  84 F   8 O    -2.300000000000E-03  1.090000000000E-01  2.523000000000E-01
  85 F   8 O     2.300000000000E-03  2.300000000000E-03 -1.410000000000E-01
  86 F   8 O     2.477000000000E-01  2.477000000000E-01 -1.410000000000E-01
  87 F   8 O    -2.523000000000E-01  2.300000000000E-03 -1.090000000000E-01
  88 F   8 O     2.300000000000E-03 -2.523000000000E-01 -1.090000000000E-01
  89 F   8 O     2.300000000000E-03 -1.410000000000E-01  2.300000000000E-03
  90 F   8 O    -1.410000000000E-01  2.300000000000E-03  2.300000000000E-03
  91 F   8 O    -2.523000000000E-01 -1.090000000000E-01  2.300000000000E-03
  92 F   8 O    -1.410000000000E-01  2.477000000000E-01  2.477000000000E-01
  93 F   8 O     2.477000000000E-01 -1.410000000000E-01  2.477000000000E-01
  94 F   8 O    -1.090000000000E-01 -2.523000000000E-01  2.300000000000E-03
  95 F   8 O     2.300000000000E-03 -1.090000000000E-01 -2.523000000000E-01
  96 F   8 O    -1.090000000000E-01  2.300000000000E-03 -2.523000000000E-01
  97 T   8 O     1.746000000000E-01  1.746000000000E-01 -3.780000000000E-02
  98 F   8 O     7.540000000000E-02  7.540000000000E-02 -3.780000000000E-02
  99 F   8 O     1.746000000000E-01  7.540000000000E-02  2.878000000000E-01
 100 F   8 O     7.540000000000E-02  1.746000000000E-01  2.878000000000E-01
 101 F   8 O    -3.780000000000E-02  1.746000000000E-01  1.746000000000E-01
 102 F   8 O     1.746000000000E-01 -3.780000000000E-02  1.746000000000E-01
 103 F   8 O     2.878000000000E-01  7.540000000000E-02  1.746000000000E-01
 104 F   8 O     7.540000000000E-02 -3.780000000000E-02  7.540000000000E-02
 105 F   8 O    -3.780000000000E-02  7.540000000000E-02  7.540000000000E-02
 106 F   8 O     7.540000000000E-02  2.878000000000E-01  1.746000000000E-01
 107 F   8 O     2.878000000000E-01  1.746000000000E-01  7.540000000000E-02
 108 F   8 O     1.746000000000E-01  2.878000000000E-01  7.540000000000E-02
 109 F   8 O    -1.746000000000E-01 -1.746000000000E-01  3.780000000000E-02
 110 F   8 O    -7.540000000000E-02 -7.540000000000E-02  3.780000000000E-02
 111 F   8 O    -7.540000000000E-02 -1.746000000000E-01 -2.878000000000E-01
 112 F   8 O    -1.746000000000E-01 -7.540000000000E-02 -2.878000000000E-01
 113 F   8 O    -1.746000000000E-01  3.780000000000E-02 -1.746000000000E-01
 114 F   8 O     3.780000000000E-02 -1.746000000000E-01 -1.746000000000E-01
 115 F   8 O    -7.540000000000E-02 -2.878000000000E-01 -1.746000000000E-01
 116 F   8 O     3.780000000000E-02 -7.540000000000E-02 -7.540000000000E-02
 117 F   8 O    -7.540000000000E-02  3.780000000000E-02 -7.540000000000E-02
 118 F   8 O    -2.878000000000E-01 -7.540000000000E-02 -1.746000000000E-01
 119 F   8 O    -1.746000000000E-01 -2.878000000000E-01 -7.540000000000E-02
 120 F   8 O    -2.878000000000E-01 -1.746000000000E-01 -7.540000000000E-02
 121 T   8 O     1.785000000000E-01 -3.215000000000E-01 -1.778000000000E-01
 122 F   8 O     7.150000000000E-02  7.150000000000E-02  3.222000000000E-01
 123 F   8 O     1.785000000000E-01  7.150000000000E-02 -7.220000000000E-02
 124 F   8 O     7.150000000000E-02  1.785000000000E-01 -7.220000000000E-02
 125 F   8 O    -1.778000000000E-01  1.785000000000E-01 -3.215000000000E-01
 126 F   8 O     1.785000000000E-01 -1.778000000000E-01 -3.215000000000E-01
 127 F   8 O    -7.220000000000E-02  7.150000000000E-02  1.785000000000E-01
 128 F   8 O     7.150000000000E-02  3.222000000000E-01  7.150000000000E-02
 129 F   8 O     3.222000000000E-01  7.150000000000E-02  7.150000000000E-02
 130 F   8 O     7.150000000000E-02 -7.220000000000E-02  1.785000000000E-01
 131 F   8 O    -7.220000000000E-02  1.785000000000E-01  7.150000000000E-02
 132 F   8 O     1.785000000000E-01 -7.220000000000E-02  7.150000000000E-02
 133 F   8 O     3.215000000000E-01 -1.785000000000E-01  1.778000000000E-01
 134 F   8 O    -7.150000000000E-02 -7.150000000000E-02 -3.222000000000E-01
 135 F   8 O    -7.150000000000E-02 -1.785000000000E-01  7.220000000000E-02
 136 F   8 O    -1.785000000000E-01 -7.150000000000E-02  7.220000000000E-02
 137 F   8 O     3.215000000000E-01  1.778000000000E-01 -1.785000000000E-01
 138 F   8 O     1.778000000000E-01  3.215000000000E-01 -1.785000000000E-01
 139 F   8 O    -7.150000000000E-02  7.220000000000E-02 -1.785000000000E-01
 140 F   8 O    -3.222000000000E-01 -7.150000000000E-02 -7.150000000000E-02
 141 F   8 O    -7.150000000000E-02 -3.222000000000E-01 -7.150000000000E-02
 142 F   8 O     7.220000000000E-02 -7.150000000000E-02 -1.785000000000E-01
 143 F   8 O    -1.785000000000E-01  7.220000000000E-02 -7.150000000000E-02
 144 F   8 O     7.220000000000E-02 -1.785000000000E-01 -7.150000000000E-02

 T = ATOM BELONGING TO THE ASYMMETRIC UNIT

 ****  48 SYMMOPS - TRANSLATORS IN FRACTIONARY UNITS
  V INV                   ROTATION MATRICES                       TRANSLATOR
  1  1  1.00  0.00  0.00  0.00  1.00  0.00  0.00  0.00  1.00    0.00  0.00  0.00
  2  2  0.00  1.00  0.00  1.00  0.00  0.00 -1.00 -1.00 -1.00    0.00  0.00  0.50
  3  3 -1.00 -1.00 -1.00  0.00  0.00  1.00  0.00  1.00  0.00    0.50  0.00  0.00
  4  4  0.00  0.00  1.00 -1.00 -1.00 -1.00  1.00  0.00  0.00    0.00  0.50  0.00
  5  6  0.00  0.00  1.00  1.00  0.00  0.00  0.00  1.00  0.00    0.00  0.00  0.00
  6  5  0.00  1.00  0.00  0.00  0.00  1.00  1.00  0.00  0.00    0.00  0.00  0.00
  7  8  1.00  0.00  0.00  0.00  0.00  1.00 -1.00 -1.00 -1.00    0.00  0.00  0.50
  8  7  1.00  0.00  0.00 -1.00 -1.00 -1.00  0.00  1.00  0.00    0.00  0.50  0.00
  9 10 -1.00 -1.00 -1.00  0.00  1.00  0.00  1.00  0.00  0.00    0.50  0.00  0.00
 10  9  0.00  0.00  1.00  0.00  1.00  0.00 -1.00 -1.00 -1.00    0.00  0.00  0.50
 11 12  0.00  1.00  0.00 -1.00 -1.00 -1.00  0.00  0.00  1.00    0.00  0.50  0.00
 12 11 -1.00 -1.00 -1.00  1.00  0.00  0.00  0.00  0.00  1.00    0.50  0.00  0.00
 13 13  0.00 -1.00  0.00 -1.00  0.00  0.00  0.00  0.00 -1.00    0.00  0.00  0.00
 14 14 -1.00  0.00  0.00  0.00 -1.00  0.00  1.00  1.00  1.00    0.00  0.00  0.50
 15 16  0.00  0.00 -1.00  1.00  1.00  1.00  0.00 -1.00  0.00    0.00  0.50  0.00
 16 15  1.00  1.00  1.00  0.00  0.00 -1.00 -1.00  0.00  0.00    0.50  0.00  0.00
 17 17 -1.00  0.00  0.00  0.00  0.00 -1.00  0.00 -1.00  0.00    0.00  0.00  0.00
 18 18  0.00  0.00 -1.00  0.00 -1.00  0.00 -1.00  0.00  0.00    0.00  0.00  0.00
 19 21  0.00  0.00 -1.00 -1.00  0.00  0.00  1.00  1.00  1.00    0.00  0.00  0.50
 20 22  1.00  1.00  1.00 -1.00  0.00  0.00  0.00 -1.00  0.00    0.50  0.00  0.00
 21 19  0.00 -1.00  0.00  1.00  1.00  1.00 -1.00  0.00  0.00    0.00  0.50  0.00
 22 20  0.00 -1.00  0.00  0.00  0.00 -1.00  1.00  1.00  1.00    0.00  0.00  0.50
 23 23  1.00  1.00  1.00  0.00 -1.00  0.00  0.00  0.00 -1.00    0.50  0.00  0.00
 24 24 -1.00  0.00  0.00  1.00  1.00  1.00  0.00  0.00 -1.00    0.00  0.50  0.00
 25 25 -1.00  0.00  0.00  0.00 -1.00  0.00  0.00  0.00 -1.00    0.00  0.00  0.00
 26 26  0.00 -1.00  0.00 -1.00  0.00  0.00  1.00  1.00  1.00    0.00  0.00  0.50
 27 27  1.00  1.00  1.00  0.00  0.00 -1.00  0.00 -1.00  0.00    0.50  0.00  0.00
 28 28  0.00  0.00 -1.00  1.00  1.00  1.00 -1.00  0.00  0.00    0.00  0.50  0.00
 29 30  0.00  0.00 -1.00 -1.00  0.00  0.00  0.00 -1.00  0.00    0.00  0.00  0.00
 30 29  0.00 -1.00  0.00  0.00  0.00 -1.00 -1.00  0.00  0.00    0.00  0.00  0.00
 31 32 -1.00  0.00  0.00  0.00  0.00 -1.00  1.00  1.00  1.00    0.00  0.00  0.50
 32 31 -1.00  0.00  0.00  1.00  1.00  1.00  0.00 -1.00  0.00    0.00  0.50  0.00
 33 34  1.00  1.00  1.00  0.00 -1.00  0.00 -1.00  0.00  0.00    0.50  0.00  0.00
 34 33  0.00  0.00 -1.00  0.00 -1.00  0.00  1.00  1.00  1.00    0.00  0.00  0.50
 35 36  0.00 -1.00  0.00  1.00  1.00  1.00  0.00  0.00 -1.00    0.00  0.50  0.00
 36 35  1.00  1.00  1.00 -1.00  0.00  0.00  0.00  0.00 -1.00    0.50  0.00  0.00
 37 37  0.00  1.00  0.00  1.00  0.00  0.00  0.00  0.00  1.00    0.00  0.00  0.00
 38 38  1.00  0.00  0.00  0.00  1.00  0.00 -1.00 -1.00 -1.00    0.00  0.00  0.50
 39 40  0.00  0.00  1.00 -1.00 -1.00 -1.00  0.00  1.00  0.00    0.00  0.50  0.00
 40 39 -1.00 -1.00 -1.00  0.00  0.00  1.00  1.00  0.00  0.00    0.50  0.00  0.00
 41 41  1.00  0.00  0.00  0.00  0.00  1.00  0.00  1.00  0.00    0.00  0.00  0.00
 42 42  0.00  0.00  1.00  0.00  1.00  0.00  1.00  0.00  0.00    0.00  0.00  0.00
 43 45  0.00  0.00  1.00  1.00  0.00  0.00 -1.00 -1.00 -1.00    0.00  0.00  0.50
 44 46 -1.00 -1.00 -1.00  1.00  0.00  0.00  0.00  1.00  0.00    0.50  0.00  0.00
 45 43  0.00  1.00  0.00 -1.00 -1.00 -1.00  1.00  0.00  0.00    0.00  0.50  0.00
 46 44  0.00  1.00  0.00  0.00  0.00  1.00 -1.00 -1.00 -1.00    0.00  0.00  0.50
 47 47 -1.00 -1.00 -1.00  0.00  1.00  0.00  0.00  0.00  1.00    0.50  0.00  0.00
 48 48  1.00  0.00  0.00 -1.00 -1.00 -1.00  0.00  0.00  1.00    0.00  0.50  0.00

 DIRECT LATTICE VECTORS CARTESIAN COMPONENTS (ANGSTROM)
          X                    Y                    Z
   0.000000000000E+00   0.107650000000E+02   0.107650000000E+02
   0.107650000000E+02   0.000000000000E+00   0.107650000000E+02
   0.107650000000E+02   0.107650000000E+02   0.000000000000E+00


 CARTESIAN COORDINATES - PRIMITIVE CELL
 *******************************************************************************
 *      ATOM          X(ANGSTROM)         Y(ANGSTROM)         Z(ANGSTROM)
 *******************************************************************************
   1    14 SI    2.723545000000E+00 -1.154008000000E+00  7.966100000000E-01
   2    14 SI    2.658955000000E+00  6.536508000000E+00  7.966100000000E-01
   3    14 SI    2.723545000000E+00 -4.228492000000E+00 -6.179110000000E+00
   4    14 SI    2.658955000000E+00 -1.154008000000E+00  4.585890000000E+00
   5    14 SI    7.966100000000E-01  2.723545000000E+00 -1.154008000000E+00
   6    14 SI   -1.154008000000E+00  7.966100000000E-01  2.723545000000E+00
   7    14 SI    4.585890000000E+00  2.658955000000E+00 -1.154008000000E+00
   8    14 SI    6.536508000000E+00  7.966100000000E-01  2.658955000000E+00
   9    14 SI    7.966100000000E-01  2.658955000000E+00  6.536508000000E+00
  10    14 SI   -4.228492000000E+00 -6.179110000000E+00  2.723545000000E+00
  11    14 SI   -6.179110000000E+00  2.723545000000E+00 -4.228492000000E+00
  12    14 SI   -1.154008000000E+00  4.585890000000E+00  2.658955000000E+00
  13    14 SI    1.154008000000E+00 -2.723545000000E+00 -7.966100000000E-01
  14    14 SI   -6.536508000000E+00 -2.658955000000E+00 -7.966100000000E-01
  15    14 SI    4.228492000000E+00 -2.723545000000E+00  6.179110000000E+00
  16    14 SI    1.154008000000E+00 -2.658955000000E+00 -4.585890000000E+00
  17    14 SI   -2.723545000000E+00 -7.966100000000E-01  1.154008000000E+00
  18    14 SI   -7.966100000000E-01  1.154008000000E+00 -2.723545000000E+00
  19    14 SI   -2.658955000000E+00 -4.585890000000E+00  1.154008000000E+00
  20    14 SI   -7.966100000000E-01 -6.536508000000E+00 -2.658955000000E+00
  21    14 SI   -2.658955000000E+00 -7.966100000000E-01 -6.536508000000E+00
  22    14 SI    6.179110000000E+00  4.228492000000E+00 -2.723545000000E+00
  23    14 SI   -2.723545000000E+00  6.179110000000E+00  4.228492000000E+00
  24    14 SI   -4.585890000000E+00  1.154008000000E+00 -2.658955000000E+00
  25    14 SI   -2.723545000000E+00  1.154008000000E+00 -7.966100000000E-01
  26    14 SI   -2.658955000000E+00 -6.536508000000E+00 -7.966100000000E-01
  27    14 SI   -2.723545000000E+00  4.228492000000E+00  6.179110000000E+00
  28    14 SI   -2.658955000000E+00  1.154008000000E+00 -4.585890000000E+00
  29    14 SI   -7.966100000000E-01 -2.723545000000E+00  1.154008000000E+00
  30    14 SI    1.154008000000E+00 -7.966100000000E-01 -2.723545000000E+00
  31    14 SI   -4.585890000000E+00 -2.658955000000E+00  1.154008000000E+00
  32    14 SI   -6.536508000000E+00 -7.966100000000E-01 -2.658955000000E+00
  33    14 SI   -7.966100000000E-01 -2.658955000000E+00 -6.536508000000E+00
  34    14 SI    4.228492000000E+00  6.179110000000E+00 -2.723545000000E+00
  35    14 SI    6.179110000000E+00 -2.723545000000E+00  4.228492000000E+00
  36    14 SI    1.154008000000E+00 -4.585890000000E+00 -2.658955000000E+00
  37    14 SI   -1.154008000000E+00  2.723545000000E+00  7.966100000000E-01
  38    14 SI    6.536508000000E+00  2.658955000000E+00  7.966100000000E-01
  39    14 SI   -4.228492000000E+00  2.723545000000E+00 -6.179110000000E+00
  40    14 SI   -1.154008000000E+00  2.658955000000E+00  4.585890000000E+00
  41    14 SI    2.723545000000E+00  7.966100000000E-01 -1.154008000000E+00
  42    14 SI    7.966100000000E-01 -1.154008000000E+00  2.723545000000E+00
  43    14 SI    2.658955000000E+00  4.585890000000E+00 -1.154008000000E+00
  44    14 SI    7.966100000000E-01  6.536508000000E+00  2.658955000000E+00
  45    14 SI    2.658955000000E+00  7.966100000000E-01  6.536508000000E+00
  46    14 SI   -6.179110000000E+00 -4.228492000000E+00  2.723545000000E+00
  47    14 SI    2.723545000000E+00 -6.179110000000E+00 -4.228492000000E+00
  48    14 SI    4.585890000000E+00 -1.154008000000E+00  2.658955000000E+00
  49     8 O     2.280027000000E+00 -2.280027000000E+00  0.000000000000E+00
  50     8 O     3.102473000000E+00  7.662527000000E+00 -9.400075532184E-16
  51     8 O     2.280027000000E+00  7.662527000000E+00  5.382500000000E+00
  52     8 O     3.102473000000E+00 -2.280027000000E+00  5.382500000000E+00
  53     8 O     0.000000000000E+00  2.280027000000E+00 -2.280027000000E+00
  54     8 O    -2.280027000000E+00 -4.700037766092E-16  2.280027000000E+00
  55     8 O     5.382500000000E+00  3.102473000000E+00 -2.280027000000E+00
  56     8 O     7.662527000000E+00  9.400075532184E-16  3.102473000000E+00
  57     8 O     0.000000000000E+00  3.102473000000E+00  7.662527000000E+00
  58     8 O     7.662527000000E+00  5.382500000000E+00  2.280027000000E+00
  59     8 O     5.382500000000E+00  2.280027000000E+00  7.662527000000E+00
  60     8 O    -2.280027000000E+00  5.382500000000E+00  3.102473000000E+00
  61     8 O    -2.280027000000E+00  2.280027000000E+00 -4.700037766092E-16
  62     8 O     7.662527000000E+00  3.102473000000E+00  9.400075532184E-16
  63     8 O    -2.280027000000E+00  3.102473000000E+00  5.382500000000E+00
  64     8 O     7.662527000000E+00  2.280027000000E+00  5.382500000000E+00
  65     8 O     0.000000000000E+00 -2.280027000000E+00  2.280027000000E+00
  66     8 O     2.280027000000E+00  4.700037766092E-16 -2.280027000000E+00
  67     8 O     5.382500000000E+00  7.662527000000E+00  2.280027000000E+00
  68     8 O     3.102473000000E+00 -1.410011329828E-15  7.662527000000E+00
  69     8 O     0.000000000000E+00  7.662527000000E+00  3.102473000000E+00
  70     8 O     3.102473000000E+00  5.382500000000E+00 -2.280027000000E+00
  71     8 O     5.382500000000E+00 -2.280027000000E+00  3.102473000000E+00
  72     8 O     2.280027000000E+00  5.382500000000E+00  7.662527000000E+00
  73     8 O    -4.951900000000E-02 -4.951900000000E-02  3.035730000000E+00
  74     8 O    -5.332981000000E+00 -5.332981000000E+00  3.035730000000E+00
  75     8 O    -4.951900000000E-02  5.432019000000E+00  2.346770000000E+00
  76     8 O     5.432019000000E+00 -4.951900000000E-02  2.346770000000E+00
  77     8 O     3.035730000000E+00 -4.951900000000E-02 -4.951900000000E-02
  78     8 O    -4.951900000000E-02  3.035730000000E+00 -4.951900000000E-02
  79     8 O     2.346770000000E+00  5.432019000000E+00 -4.951900000000E-02
  80     8 O    -5.332981000000E+00  3.035730000000E+00 -5.332981000000E+00
  81     8 O     3.035730000000E+00 -5.332981000000E+00 -5.332981000000E+00
  82     8 O     5.432019000000E+00  2.346770000000E+00 -4.951900000000E-02
  83     8 O     2.346770000000E+00 -4.951900000000E-02  5.432019000000E+00
  84     8 O    -4.951900000000E-02  2.346770000000E+00  5.432019000000E+00
  85     8 O     4.951900000000E-02  4.951900000000E-02 -3.035730000000E+00
  86     8 O     5.332981000000E+00  5.332981000000E+00 -3.035730000000E+00
  87     8 O    -5.432019000000E+00  4.951900000000E-02 -2.346770000000E+00
  88     8 O     4.951900000000E-02 -5.432019000000E+00 -2.346770000000E+00
  89     8 O     4.951900000000E-02 -3.035730000000E+00  4.951900000000E-02
  90     8 O    -3.035730000000E+00  4.951900000000E-02  4.951900000000E-02
  91     8 O    -5.432019000000E+00 -2.346770000000E+00  4.951900000000E-02
  92     8 O    -3.035730000000E+00  5.332981000000E+00  5.332981000000E+00
  93     8 O     5.332981000000E+00 -3.035730000000E+00  5.332981000000E+00
  94     8 O    -2.346770000000E+00 -5.432019000000E+00  4.951900000000E-02
  95     8 O     4.951900000000E-02 -2.346770000000E+00 -5.432019000000E+00
  96     8 O    -2.346770000000E+00  4.951900000000E-02 -5.432019000000E+00
  97     8 O     3.759138000000E+00  3.759138000000E+00 -8.138340000000E-01
  98     8 O     1.623362000000E+00  1.623362000000E+00 -8.138340000000E-01
  99     8 O     3.759138000000E+00  1.623362000000E+00  6.196334000000E+00
 100     8 O     1.623362000000E+00  3.759138000000E+00  6.196334000000E+00
 101     8 O    -8.138340000000E-01  3.759138000000E+00  3.759138000000E+00
 102     8 O     3.759138000000E+00 -8.138340000000E-01  3.759138000000E+00
 103     8 O     6.196334000000E+00  1.623362000000E+00  3.759138000000E+00
 104     8 O     1.623362000000E+00 -8.138340000000E-01  1.623362000000E+00
 105     8 O    -8.138340000000E-01  1.623362000000E+00  1.623362000000E+00
 106     8 O     1.623362000000E+00  6.196334000000E+00  3.759138000000E+00
 107     8 O     6.196334000000E+00  3.759138000000E+00  1.623362000000E+00
 108     8 O     3.759138000000E+00  6.196334000000E+00  1.623362000000E+00
 109     8 O    -3.759138000000E+00 -3.759138000000E+00  8.138340000000E-01
 110     8 O    -1.623362000000E+00 -1.623362000000E+00  8.138340000000E-01
 111     8 O    -1.623362000000E+00 -3.759138000000E+00 -6.196334000000E+00
 112     8 O    -3.759138000000E+00 -1.623362000000E+00 -6.196334000000E+00
 113     8 O    -3.759138000000E+00  8.138340000000E-01 -3.759138000000E+00
 114     8 O     8.138340000000E-01 -3.759138000000E+00 -3.759138000000E+00
 115     8 O    -1.623362000000E+00 -6.196334000000E+00 -3.759138000000E+00
 116     8 O     8.138340000000E-01 -1.623362000000E+00 -1.623362000000E+00
 117     8 O    -1.623362000000E+00  8.138340000000E-01 -1.623362000000E+00
 118     8 O    -6.196334000000E+00 -1.623362000000E+00 -3.759138000000E+00
 119     8 O    -3.759138000000E+00 -6.196334000000E+00 -1.623362000000E+00
 120     8 O    -6.196334000000E+00 -3.759138000000E+00 -1.623362000000E+00
 121     8 O     3.843105000000E+00 -6.921895000000E+00 -3.828034000000E+00
 122     8 O     1.539395000000E+00  1.539395000000E+00  6.936966000000E+00
 123     8 O     3.843105000000E+00  1.539395000000E+00 -1.554466000000E+00
 124     8 O     1.539395000000E+00  3.843105000000E+00 -1.554466000000E+00
 125     8 O    -3.828034000000E+00  3.843105000000E+00 -6.921895000000E+00
 126     8 O     3.843105000000E+00 -3.828034000000E+00 -6.921895000000E+00
 127     8 O    -1.554466000000E+00  1.539395000000E+00  3.843105000000E+00
 128     8 O     1.539395000000E+00  6.936966000000E+00  1.539395000000E+00
 129     8 O     6.936966000000E+00  1.539395000000E+00  1.539395000000E+00
 130     8 O     1.539395000000E+00 -1.554466000000E+00  3.843105000000E+00
 131     8 O    -1.554466000000E+00  3.843105000000E+00  1.539395000000E+00
 132     8 O     3.843105000000E+00 -1.554466000000E+00  1.539395000000E+00
 133     8 O     6.921895000000E+00 -3.843105000000E+00  3.828034000000E+00
 134     8 O    -1.539395000000E+00 -1.539395000000E+00 -6.936966000000E+00
 135     8 O    -1.539395000000E+00 -3.843105000000E+00  1.554466000000E+00
 136     8 O    -3.843105000000E+00 -1.539395000000E+00  1.554466000000E+00
 137     8 O     6.921895000000E+00  3.828034000000E+00 -3.843105000000E+00
 138     8 O     3.828034000000E+00  6.921895000000E+00 -3.843105000000E+00
 139     8 O    -1.539395000000E+00  1.554466000000E+00 -3.843105000000E+00
 140     8 O    -6.936966000000E+00 -1.539395000000E+00 -1.539395000000E+00
 141     8 O    -1.539395000000E+00 -6.936966000000E+00 -1.539395000000E+00
 142     8 O     1.554466000000E+00 -1.539395000000E+00 -3.843105000000E+00
 143     8 O    -3.843105000000E+00  1.554466000000E+00 -1.539395000000E+00
 144     8 O     1.554466000000E+00 -3.843105000000E+00 -1.539395000000E+00
 WARNING **** CRYSTA **** TESTGEOM  DIRECTIVE - GEOMETRY EDITING COMPLETE
 TTTTTTTTTTTTTTTTTTTTTTTTTTTTTT END         TELAPSE        0.02 TCPU        0.02
 EEEEEEEEEE TERMINATION  DATE 23 02 2010 TIME 12:19:22.9
