date Thu Apr 2 09:25:35 BST 2009
hostname pcphy162
system Linux pcphy162 2.6.24-16-generic #1 SMP Thu Apr 10 13:23:42 UTC 2008 i686 GNU/Linux
user pc229
executable in /home/pc229/bin/CRY06/bin/
temporary directory /home/pc229/bin/CRY06/scratch/tmp13332
output in /home/pc229/backup/Counts/CRY/Fe2O3_bulk/CRY/XL_GRID/PBE0/hem_bulk_PBE_r2.out
input data /home/pc229/backup/Counts/CRY/Fe2O3_bulk/CRY/XL_GRID/PBE0/hem_bulk_PBE_r2.d12
HEMATITE  
EXTERNAL
MODISYMM
4
1 1 2 -1 3 -1 4 1
OPTGEOM
FULLOPTG
END
ENDG
26 7
0 0 8 2.0 1.0
 315379.0     0.0002275.10052905
  45690.0     0.0019
   9677.3     0.0111
   2520.88    0.0501
    759.746   0.1705
    262.964   0.36924
    102.801   0.4033
     42.9733  0.1434
0 1 6 8.0 1.0
    798.262  -0.0052  0.00850
    191.162  -0.068   0.0608
     63.6885 -0.1314  0.2114
     25.3625  0.2517  0.3944
     10.7338  0.6433  0.398
      3.764   0.2825  0.2251
0 1 4 8.0 1.0
     48.1434  0.0122 -0.0215
     17.4579 -0.2278 -0.085
      6.9972 -0.8801  0.201
      3.0791  0.9755  1.3024
0 3 4 5.0 1.0
     30.4821  0.0583
      8.692   0.2591
      3.1008  0.5162
      1.1709  0.5656
0 1 1 0.0 1.0
      1.3137  1.0     1.0
0 1 1 0.0 1.0
      0.5625  1.0     1.0
0 3 1 0.0 1.0
      0.4345  1.0   
8 4
0 0 8 2.0 1.0
 8020.0    0.00108
 1338.0    0.00804
  255.4    0.05324
   69.22   0.1681
   23.90   0.3581
    9.264  0.3855
    3.851  0.1468
    1.212  0.0728
0 1 4 8.0 1.0
   49.43  -0.00883 0.00958
   10.47  -0.0915  0.0696
    3.235 -0.0402  0.2065
    1.217  0.379   0.347
0 1 1 0.0 1.0
    0.5    1.0     1.0
0 1 1 0.0 1.0
    0.191  1.0     1.0
99 0
ENDB
DFT
SPIN
EXCHANGE
PBE
CORRELAT
PBE
HYBRID
20
NONLOCAL
0.9 0.81
XLGRID
END
SHRINK
6 6
SCFDIR
ATOMSPIN
4 
1 1 2 -1 3 -1 4 1
SPINLOCK
0  50 
LEVSHIFT
3 1
FMIXING
60
MAXCYCLE
700
PPAN
END
external geometry input found in /home/pc229/backup/Counts/CRY/Fe2O3_bulk/CRY/XL_GRID/PBE0/hem_bulk_PBE_r2.gui

         
 *******************************************************************************
 *                                                                             *
 *                                CRYSTAL06                                    *
 *                          Release 1.0 - v1_0_1                               *
 *                                                                             *
 *                          Compiled:  03 ott 2006 08:32                       *
 *                          Xmake: Linux-pgf                                   *
 *                                                                             *
 *                                                                             *
 *                              MAIN AUTHORS                                   *
 *                                                                             *
 *        R. DOVESI(1), V.R. SAUNDERS(2), C. ROETTI(1), R. ORLANDO (1,3),      *
 *     C.M. ZICOVICH-WILSON(1,4), F. PASCALE(5), B. CIVALLERI(1), K. DOLL(6),  *
 *        N.M. HARRISON(2,7), I. J. BUSH(2), Ph. D'ARCO(8), M. LLUNELL(9)      *
 *                                                                             *
 * (1) THEORETICAL CHEMISTRY GROUP - UNIVERSITA' DI TORINO - TORINO (ITALY)    *
 *      http://www.crystal.unito.it                                            *
 * (2) COMPUTATIONAL SCIENCE & ENGINEERING DEPARTMENT - CCLRC DARESBURY (UK)   *
 *     http://www.cse.clrc.ac.uk/cmg/CRYSTAL/                                  *
 * (3) UNIVERSITA' DEL PIEMONTE ORIENTALE - ALESSANDRIA (ITALY)                *
 * (4) UNIVERSIDAD AUTONOMA DEL ESTADO DE MORELOS - CUERNAVACA (MEXICO)        *
 * (5) UNIVERSITE' HENRI POINCARE' - NANCY (FRANCE)                            *
 * (6) TU BRAUNSCHWEIG - BRAUNSCHWEIG (GERMANY)                                *
 * (7) IMPERIAL COLLEGE - LONDON (UK)                                          *
 * (8) UNIVERSITE' PIERRE ET MARIE CURIE - PARIS (FRANCE)                      *
 * (9) UNIVERSIDAD DE BARCELONA - BARCELONA (SPAIN)                            *
 *******************************************************************************
 EEEEEEEEEE STARTING  DATE 02 04 2009 TIME 09:25:36.2
 HEMATITE                                                                        

 GEOMETRY INPUT FROM EXTERNAL FILE (FORTRAN UNIT 34)
 3D - CRYSTAL 

 *******************************************************************************
 LATTICE PARAMETERS  (ANGSTROMS AND DEGREES) - PRIMITIVE CELL
       A          B          C         ALPHA      BETA     GAMMA        VOLUME
    5.42447    5.42447    5.42447     55.4559   55.4559   55.4559     100.95425

 NUMBER OF IRREDUCIBLE ATOMS IN THE CELL:    6

 CARTESIAN COORDINATES (ANGSTROM) - IRREDUCIBLE ATOMS AND SYMMETRY RELATED

 AT.IRR.  AT  AT.N.          X                   Y                   Z
     1     1    26    1.457153917234E+00  2.523864619088E+00  3.229536816760E-01
     2     2    26    0.000000000000E+00  0.000000000000E+00 -1.964045358621E+00
     3     3    26    0.000000000000E+00  0.000000000000E+00  1.964221153365E+00
     4     4    26   -1.457153917234E+00  2.523864619088E+00 -3.227792432420E-01
     5     5     8   -1.584997481014E+00 -7.675174468840E-01 -1.143845213001E+00
     5     6     8    1.457188347356E+00 -9.888893600498E-01 -1.143845213001E+00
     5     7     8    1.278091336580E-01  1.756406806934E+00 -1.143845213001E+00
     6     8     8    1.584960997317E+00  7.674524948670E-01  1.143728468609E+00
     6     9     8   -1.457113855411E+00  9.888902402498E-01  1.143728468609E+00
     6    10     8   -1.278471419063E-01 -1.756342735117E+00  1.143728468609E+00

 NUMBER OF SYMMETRY OPERATORS         :    3
 *******************************************************************************
 LATTICE PARAMETERS (ANGSTROMS AND DEGREES) - BOHR = 0.5291772083 ANGSTROM
 PRIMITIVE CELL - CENTRING CODE 7/0 VOLUME=   100.954247 - DENSITY 5.259 g/cm^3
         A              B              C           ALPHA      BETA       GAMMA 
     5.42446793     5.42446793     5.42446793    55.455930  55.455930  55.455930
 *******************************************************************************
 ATOMS IN THE ASYMMETRIC UNIT    6 - ATOMS IN THE UNIT CELL:   10
     ATOM              X/A                 Y/B                 Z/C    
 *******************************************************************************
   1 T  26 FE    3.568630732265E-01  3.568630732260E-01  3.568630732268E-01
   2 T  26 FE   -1.430962984744E-01 -1.430962984749E-01 -1.430962984749E-01
   3 T  26 FE    1.431091065173E-01  1.431091065177E-01  1.431091065177E-01
   4 T  26 FE   -3.568503640016E-01 -3.568503640019E-01 -3.568503640011E-01
   5 T   8 O    -4.459165766971E-01 -5.410104405455E-02  2.500030037928E-01
   6 F   8 O     2.500030037927E-01 -4.459165766977E-01 -5.410104405380E-02
   7 F   8 O    -5.410104405381E-02  2.500030037931E-01 -4.459165766981E-01
   8 T   8 O     4.458997250608E-01  5.408384366735E-02 -2.499944690370E-01
   9 F   8 O    -2.499944690368E-01  4.458997250614E-01  5.408384366660E-02
  10 F   8 O     5.408384366661E-02 -2.499944690373E-01  4.458997250618E-01

 TRANSFORMATION MATRIX PRIMITIVE-CRYSTALLOGRAPHIC CELL
  1.0000  0.0000  1.0000 -1.0000  1.0000  1.0000  0.0000 -1.0000  1.0000

 *******************************************************************************
 CRYSTALLOGRAPHIC CELL (VOLUME=        302.86274032)
         A              B              C           ALPHA      BETA       GAMMA 
     5.04772924     5.04772924    13.72534007    90.000000  90.000000 120.000000

 COORDINATES IN THE CRYSTALLOGRAPHIC CELL
     ATOM              X/A                 Y/B                 Z/C    
 *******************************************************************************
   1 T  26 FE    3.333333333334E-01 -3.333333333337E-01  2.352973989311E-02
   2 T  26 FE    3.273420161091E-13  1.636710080546E-13 -1.430962984747E-01
   3 T  26 FE   -3.273713153337E-13 -1.636856576668E-13  1.431091065176E-01
   4 T  26 FE   -3.333333333334E-01  3.333333333329E-01 -2.351703066819E-02
   5 T   8 O    -3.625783710441E-01 -3.333412094458E-01 -8.333820565294E-02
   6 F   8 O     3.333412094456E-01 -2.923716159914E-02 -8.333820565294E-02
   7 F   8 O     2.923716159913E-02  3.625783710452E-01 -8.333820565294E-02
   8 T   8 O     3.625700251637E-01  3.333241689340E-01  8.332969989706E-02
   9 F   8 O    -3.333241689339E-01  2.924585623046E-02  8.332969989706E-02
  10 F   8 O    -2.924585623044E-02 -3.625700251648E-01  8.332969989706E-02

 T = ATOM BELONGING TO THE ASYMMETRIC UNIT
 *******************************************************************************
 * GEOMETRY EDITING - INPUT COORDINATES ARE GIVEN IN ANGSTROM          
 *******************************************************************************

 GEOMETRY NOW FULLY CONSISTENT WITH THE GROUP
 SSSSSSSSSSSSSSSSSSSSSSSSSSSSSSSSSSSSSSSSSSSSSSSSSSSSSSSSSSSSSSSSSSSSSSSSSSSSSS
 REDUCTION OF SYMMETRY - ATOMIC LABELS SET TO (ATOM, AT. N., LABEL)
   1( 26) 1;   2( 26)-1;   3( 26)-1;   4( 26) 1;   5(  8) 0;   6(  8) 0;
   7(  8) 0;   8(  8) 0;   9(  8) 0;  10(  8) 0;
 WARNING **** MODSYM **** GEOMETRICAL SYMMETRY NOT REDUCED
 *******************************************************************************
 COMBINED CELL/ATOM OPTIMIZATION CONTROL

 MAXIMUM GRADIENT COMPONENT   0.00045 MAXIMUM DISPLACEMENT COMPONENT     0.00030
 R.M.S. OF GRADIENT COMPONENT 0.00180 R.M.S. OF DISPLACEMENT COMPONENTS  0.00120
 THRESHOLD ON ENERGY CHANGE 0.100E-06 EXTRAPOLATING POLYNOMIAL ORDER           2
 MAXIMUM ALLOWED NUMBER OF STEPS  100 SORTING OF ENERGY POINTS:               NO
 ANALYTICAL  GRADIENT                 HESSIAN UPDATING                      BFGS
 STEP SIZE NUMERICAL GRADIENT 0.00100
 INITIAL HESSIAN MATRIX: SCHLEGEL MODEL 2
 *******************************************************************************


 GCALCO - MAX INDICES DIRECT LATTICE VECTOR  10  10  10
 NO.OF VECTORS CREATED 2999 STARS  244 RMAX    78.88648 BOHR

 GEOMETRY FOR WAVE FUNCTION - DIMENSIONALITY OF THE SYSTEM    3
 (NON PERIODIC DIRECTION: LATTICE PARAMETER FORMALLY SET TO 500)
 *******************************************************************************
 LATTICE PARAMETERS (ANGSTROMS AND DEGREES) - BOHR = 0.5291772083 ANGSTROM
 PRIMITIVE CELL - CENTRING CODE 7/0 VOLUME=   100.954247 - DENSITY 5.259 g/cm^3
         A              B              C           ALPHA      BETA       GAMMA 
     5.42446793     5.42446793     5.42446793    55.455930  55.455930  55.455930
 *******************************************************************************
 ATOMS IN THE ASYMMETRIC UNIT    6 - ATOMS IN THE UNIT CELL:   10
     ATOM              X/A                 Y/B                 Z/C    
 *******************************************************************************
   1 T  26 FE    3.568630732264E-01  3.568630732265E-01  3.568630732265E-01
   2 T  26 FE1  -1.430962984744E-01 -1.430962984749E-01 -1.430962984749E-01
   3 T  26 FE1   1.431091065173E-01  1.431091065177E-01  1.431091065177E-01
   4 T  26 FE   -3.568503640015E-01 -3.568503640015E-01 -3.568503640015E-01
   5 T   8 O    -4.459165766971E-01 -5.410104405455E-02  2.500030037928E-01
   6 F   8 O     2.500030037927E-01 -4.459165766977E-01 -5.410104405380E-02
   7 F   8 O    -5.410104405381E-02  2.500030037931E-01 -4.459165766981E-01
   8 T   8 O     4.458997250608E-01  5.408384366735E-02 -2.499944690370E-01
   9 F   8 O    -2.499944690368E-01  4.458997250614E-01  5.408384366660E-02
  10 F   8 O     5.408384366661E-02 -2.499944690373E-01  4.458997250618E-01

 TRANSFORMATION MATRIX PRIMITIVE-CRYSTALLOGRAPHIC CELL
  1.0000  0.0000  1.0000 -1.0000  1.0000  1.0000  0.0000 -1.0000  1.0000

 *******************************************************************************
 CRYSTALLOGRAPHIC CELL (VOLUME=        302.86274032)
         A              B              C           ALPHA      BETA       GAMMA 
     5.04772924     5.04772924    13.72534007    90.000000  90.000000 120.000000

 COORDINATES IN THE CRYSTALLOGRAPHIC CELL
     ATOM              X/A                 Y/B                 Z/C    
 *******************************************************************************
   1 T  26 FE    3.333333333333E-01 -3.333333333334E-01  2.352973989311E-02
   2 T  26 FE1   3.273488932276E-13  1.636744466138E-13 -1.430962984747E-01
   3 T  26 FE1  -3.273647523163E-13 -1.636823761582E-13  1.431091065176E-01
   4 T  26 FE   -3.333333333333E-01  3.333333333334E-01 -2.351703066819E-02
   5 T   8 O    -3.625783710441E-01 -3.333412094458E-01 -8.333820565294E-02
   6 F   8 O     3.333412094456E-01 -2.923716159914E-02 -8.333820565294E-02
   7 F   8 O     2.923716159913E-02  3.625783710452E-01 -8.333820565294E-02
   8 T   8 O     3.625700251637E-01  3.333241689340E-01  8.332969989706E-02
   9 F   8 O    -3.333241689339E-01  2.924585623046E-02  8.332969989706E-02
  10 F   8 O    -2.924585623044E-02 -3.625700251648E-01  8.332969989706E-02

 T = ATOM BELONGING TO THE ASYMMETRIC UNIT

 ****   3 SYMMOPS - TRANSLATORS IN FRACTIONARY UNITS
  V INV                   ROTATION MATRICES                       TRANSLATOR
  1  1  1.00  0.00  0.00  0.00  1.00  0.00  0.00  0.00  1.00    0.00  0.00  0.00
  2  3  0.00  0.00  1.00  1.00  0.00  0.00  0.00  1.00  0.00    0.00  0.00  0.00
  3  2  0.00  1.00  0.00  0.00  0.00  1.00  1.00  0.00  0.00    0.00  0.00  0.00

 DIRECT LATTICE VECTORS CARTESIAN COMPONENTS (ANGSTROM)
          X                    Y                    Z
   0.291430783447E+01   0.000000000000E+00   0.457511335503E+01
  -0.145715391723E+01   0.252386461909E+01   0.457511335503E+01
  -0.145715391723E+01  -0.252386461909E+01   0.457511335503E+01


 CARTESIAN COORDINATES - PRIMITIVE CELL
 *******************************************************************************
 *      ATOM          X(ANGSTROM)         Y(ANGSTROM)         Z(ANGSTROM)
 *******************************************************************************
   1    26 FE    1.457153917233E+00  2.523864619090E+00  3.229536816760E-01
   2    26 FE1   5.875047207615E-17  0.000000000000E+00 -1.964045358621E+00
   3    26 FE1   0.000000000000E+00  0.000000000000E+00  1.964221153365E+00
   4    26 FE   -1.457153917233E+00  2.523864619090E+00 -3.227792432420E-01
   5     8 O    -1.584997481014E+00 -7.675174468840E-01 -1.143845213001E+00
   6     8 O     1.457188347356E+00 -9.888893600498E-01 -1.143845213001E+00
   7     8 O     1.278091336580E-01  1.756406806934E+00 -1.143845213001E+00
   8     8 O     1.584960997317E+00  7.674524948670E-01  1.143728468609E+00
   9     8 O    -1.457113855411E+00  9.888902402498E-01  1.143728468609E+00
  10     8 O    -1.278471419063E-01 -1.756342735117E+00  1.143728468609E+00

 *******************************************************************************
 LOCAL ATOMIC FUNCTIONS BASIS SET
 *******************************************************************************
   ATOM  X(AU)  Y(AU)  Z(AU)    NO. TYPE  EXPONENT  S COEF   P COEF   D/F/G COEF
 *******************************************************************************
   1 FE  2.754  4.769  0.610
                                  1 S  
                                         3.154E+05 2.275E-04 0.000E+00 0.000E+00
                                         4.569E+04 1.900E-03 0.000E+00 0.000E+00
                                         9.677E+03 1.110E-02 0.000E+00 0.000E+00
                                         2.521E+03 5.010E-02 0.000E+00 0.000E+00
                                         7.597E+02 1.705E-01 0.000E+00 0.000E+00
                                         2.630E+02 3.692E-01 0.000E+00 0.000E+00
                                         1.028E+02 4.033E-01 0.000E+00 0.000E+00
                                         4.297E+01 1.434E-01 0.000E+00 0.000E+00
                             2-   5 SP 
                                         7.983E+02-5.200E-03 8.500E-03 0.000E+00
                                         1.912E+02-6.800E-02 6.080E-02 0.000E+00
                                         6.369E+01-1.314E-01 2.114E-01 0.000E+00
                                         2.536E+01 2.517E-01 3.944E-01 0.000E+00
                                         1.073E+01 6.433E-01 3.980E-01 0.000E+00
                                         3.764E+00 2.825E-01 2.251E-01 0.000E+00
                             6-   9 SP 
                                         4.814E+01 1.220E-02-2.150E-02 0.000E+00
                                         1.746E+01-2.278E-01-8.500E-02 0.000E+00
                                         6.997E+00-8.801E-01 2.010E-01 0.000E+00
                                         3.079E+00 9.755E-01 1.302E+00 0.000E+00
                            10-  14 D  
                                         3.048E+01 0.000E+00 0.000E+00 5.830E-02
                                         8.692E+00 0.000E+00 0.000E+00 2.591E-01
                                         3.101E+00 0.000E+00 0.000E+00 5.162E-01
                                         1.171E+00 0.000E+00 0.000E+00 5.656E-01
                            15-  18 SP 
                                         1.314E+00 1.000E+00 1.000E+00 0.000E+00
                            19-  22 SP 
                                         5.625E-01 1.000E+00 1.000E+00 0.000E+00
                            23-  27 D  
                                         4.345E-01 0.000E+00 0.000E+00 1.000E+00
   2 FE  0.000  0.000 -3.712
   3 FE  0.000  0.000  3.712
   4 FE -2.754  4.769 -0.610
   5 O  -2.995 -1.450 -2.162
                                109 S  
                                         8.020E+03 1.080E-03 0.000E+00 0.000E+00
                                         1.338E+03 8.040E-03 0.000E+00 0.000E+00
                                         2.554E+02 5.324E-02 0.000E+00 0.000E+00
                                         6.922E+01 1.681E-01 0.000E+00 0.000E+00
                                         2.390E+01 3.581E-01 0.000E+00 0.000E+00
                                         9.264E+00 3.855E-01 0.000E+00 0.000E+00
                                         3.851E+00 1.468E-01 0.000E+00 0.000E+00
                                         1.212E+00 7.280E-02 0.000E+00 0.000E+00
                           110- 113 SP 
                                         4.943E+01-8.830E-03 9.580E-03 0.000E+00
                                         1.047E+01-9.150E-02 6.960E-02 0.000E+00
                                         3.235E+00-4.020E-02 2.065E-01 0.000E+00
                                         1.217E+00 3.790E-01 3.470E-01 0.000E+00
                           114- 117 SP 
                                         5.000E-01 1.000E+00 1.000E+00 0.000E+00
                           118- 121 SP 
                                         1.910E-01 1.000E+00 1.000E+00 0.000E+00
   6 O   2.754 -1.869 -2.162
   7 O   0.242  3.319 -2.162
   8 O   2.995  1.450  2.161
   9 O  -2.754  1.869  2.161
  10 O  -0.242 -3.319  2.161
 INFORMATION **** READM2 **** FULL DIRECT SCF (MONO AND BIEL INT) SELECTED
 SSSSSSSSSSSSSSSSSSSSSSSSSSSSSSSSSSSSSSSSSSSSSSSSSSSSSSSSSSSSSSSSSSSSSSSSSSSSSS
 ATOMIC SPINS SET TO (ATOM, AT. N., SPIN)
   1  26 1   2  26-1   3  26-1   4  26 1   5   8 0   6   8 0   7   8 0   8   8 0
   9   8 0  10   8 0
 ALPHA-BETA ELECTRONS LOCKED TO   0 FOR  50 SCF CYCLES
 INFORMATION **** MAXCYCLE **** MAX NUMBER OF SCF CYCLES SET TO       700
 INFORMATION **** PPAN ****  MULLIKEN POPULATION ANALYSIS AT THE END OF SCF
 *******************************************************************************
 N. OF ATOMS PER CELL       10  COULOMB OVERLAP TOL         (T1) 10** -6
 NUMBER OF SHELLS           52  COULOMB PENETRATION TOL     (T2) 10** -6
 NUMBER OF AO              186  EXCHANGE OVERLAP TOL        (T3) 10** -6
 N. OF ELECTRONS PER CELL  152  EXCHANGE PSEUDO OVP (F(G))  (T4) 10** -6
 CORE ELECTRONS PER CELL    84  EXCHANGE PSEUDO OVP (P(G))  (T5) 10**-12
 N. OF SYMMETRY OPERATORS    3  POLE ORDER IN MONO ZONE                4
 *******************************************************************************
 TYPE OF CALCULATION :  UNRESTRICTED OPEN SHELL
 KOHN-SHAM HAMILTONIAN

 (EXCHANGE)[CORRELATION] FUNCTIONAL:(PERDEW-BURKE-ERNZERHOF)[PERDEW-BURKE-ERNZERHOF]

 NON-LOCAL WEIGHTING FACTOR (EXCHANGE) =           0.9000
 NON-LOCAL WEIGHTING FACTOR [CORRELATION] =        0.8100

 HYBRID EXCHANGE - PERCENTAGE OF FOCK EXCHANGE    20.0000

 SPIN POLARIZED DFT SELECTED
 EIGENVALUE LEVEL SHIFTING OF  0.300 HARTREE
 LOCKING - FERMI ENERGY ALTERED BY LEVEL SHIFTER
 *******************************************************************************
 MAX NUMBER OF SCF CYCLES     700  CONVERGENCE ON DELTAP        10**-16
 WEIGHT OF F(I) IN F(I+1)      60% CONVERGENCE ON ENERGY        10**- 7
 EIGENVALUE LEVEL SHIFTING OF  0.300 HARTREE
 LOCKING - FERMI ENERGY ALTERED BY LEVEL SHIFTER
 SHRINK. FACT.(MONKH.)    6  6  6  NUMBER OF K POINTS IN THE IBZ     40
 SHRINKING FACTOR(GILAT NET)    6  NUMBER OF K POINTS(GILAT NET)     40
 *******************************************************************************
 *** K POINTS COORDINATES (OBLIQUE COORDINATES IN UNITS OF IS =  6)
   1-R(  0  0  0)   2-C(  1  0  0)   3-C(  2  0  0)   4-R(  3  0  0)
   5-C(  1  1  0)   6-C(  2  1  0)   7-C(  3  1  0)   8-C(  4  1  0)
   9-C(  5  1  0)  10-C(  1  2  0)  11-C(  2  2  0)  12-C(  3  2  0)
  13-C(  4  2  0)  14-C(  5  2  0)  15-C(  1  3  0)  16-C(  2  3  0)
  17-R(  3  3  0)  18-C(  1  1  1)  19-C(  2  1  1)  20-C(  3  1  1)
  21-C(  4  1  1)  22-C(  5  1  1)  23-C(  2  2  1)  24-C(  3  2  1)
  25-C(  4  2  1)  26-C(  5  2  1)  27-C(  2  3  1)  28-C(  3  3  1)
  29-C(  4  3  1)  30-C(  5  3  1)  31-C(  2  4  1)  32-C(  3  4  1)
  33-C(  4  4  1)  34-C(  5  4  1)  35-C(  2  2  2)  36-C(  3  2  2)
  37-C(  4  2  2)  38-C(  3  3  2)  39-C(  4  3  2)  40-R(  3  3  3)

 DIRECT LATTICE VECTORS COMPON. (A.U.)     RECIP. LATTICE VECTORS COMPON. (A.U.) 
        X            Y            Z              X            Y            Z
    5.5072437    0.0000000    8.6457113      0.7605965    0.0000000    0.2422467
   -2.7536218    4.7694129    8.6457113     -0.3802982    0.6586959    0.2422467
   -2.7536218   -4.7694129    8.6457113     -0.3802982   -0.6586959    0.2422467

 DISK SPACE FOR EIGENVECTORS (FTN 10)    2629296 REALS

 SYMMETRY ADAPTION OF THE BLOCH FUNCTIONS ENABLED

 DIMENSIONS  P(G)=  210050 F(G)=   37310 P(G),F(G) (IRR)   38522
 MAX G-VECTOR INDEX FOR 1- AND 2-ELECTRON INTEGRALS  85

 TTTTTTTTTTTTTTTTTTTTTTTTTTTTTT INPUT       TELAPSE        0.10 TCPU        0.00

 NEIGHBORS OF THE NON-EQUIVALENT ATOMS

 N = NUMBER OF NEIGHBORS AT DISTANCE R
    ATOM  N     R/ANG      R/AU   NEIGHBORS (ATOM LABELS AND CELL INDICES)
   1 FE   3     1.9429     3.6716   8 O    0 0 0   9 O    1 0-1  10 O    0 1-1
   1 FE   3     2.1231     4.0121   5 O    1 0-1   6 O    0 1-1   7 O    0 0 0
   1 FE   1     2.9338     5.5442   3 FE   0 0-1
   1 FE   3     2.9850     5.6408   4 FE   1 0-1   4 FE   1-1 0   4 FE   0 0 0
   1 FE   3     3.3447     6.3205   3 FE   0 0 0   3 FE   0 1-1   3 FE   1 0-1
   1 FE   3     3.3945     6.4147   8 O    0 1-1   9 O    0 0 0  10 O    1 0-1

   2 FE   3     1.9427     3.6711   5 O    0 0 0   6 O    0 0 0   7 O    0 0 0
   2 FE   3     2.1235     4.0128   8 O   -1 0 0   9 O    0-1 0  10 O    0 0-1
   2 FE   1     2.9338     5.5442   4 FE   0-1 0
   2 FE   3     2.9852     5.6413   3 FE   0-1 0   3 FE   0 0-1   3 FE  -1 0 0
   2 FE   3     3.3447     6.3205   4 FE   0 0 0   4 FE   0-1 1   4 FE   1-1 0
   2 FE   3     3.3944     6.4145   7 O    0-1 1   5 O    1 0-1   6 O   -1 1 0

   3 FE   3     1.9428     3.6713   8 O    0 0 0   9 O    0 0 0  10 O    0 0 0
   3 FE   3     2.1233     4.0124   5 O    1 0 0   6 O    0 1 0   7 O    0 0 1
   3 FE   1     2.9338     5.5442   1 FE   0 0 1
   3 FE   3     2.9852     5.6413   2 FE   0 1 0   2 FE   0 0 1   2 FE   1 0 0
   3 FE   3     3.3447     6.3205   1 FE   0 0 0   1 FE   0-1 1   1 FE  -1 0 1
   3 FE   3     3.3945     6.4147  10 O    0 1-1   8 O   -1 0 1   9 O    1-1 0

   4 FE   3     1.9430     3.6717   5 O    0 1-1   6 O   -1 1 0   7 O    0 0 0
   4 FE   3     2.1229     4.0117   8 O   -1 1 0   9 O    0 0 0  10 O    0 1-1
   4 FE   1     2.9338     5.5442   2 FE   0 1 0
   4 FE   3     2.9850     5.6408   1 FE  -1 0 1   1 FE  -1 1 0   1 FE   0 0 0
   4 FE   3     3.3447     6.3205   2 FE   0 0 0   2 FE   0 1-1   2 FE  -1 1 0
   4 FE   3     3.3947     6.4150   5 O    0 0 0   6 O    0 1-1   7 O   -1 1 0

   5 O    1     1.9427     3.6711   2 FE   0 0 0
   5 O    1     1.9430     3.6717   4 FE   0-1 1
   5 O    1     2.1231     4.0121   1 FE  -1 0 1
   5 O    1     2.1233     4.0124   3 FE  -1 0 0
   5 O    2     2.6587     5.0241   6 O   -1 1 0   7 O   -1 0 1
   5 O    1     2.7666     5.2282   8 O   -1 0 0

   8 O    1     1.9428     3.6713   3 FE   0 0 0
   8 O    1     1.9429     3.6716   1 FE   0 0 0
   8 O    1     2.1229     4.0117   4 FE   1-1 0
   8 O    1     2.1235     4.0128   2 FE   1 0 0
   8 O    2     2.6587     5.0241   9 O    1-1 0  10 O    1 0-1
   8 O    1     2.7666     5.2282   5 O    1 0 0


 SYMMETRY ALLOWED ELASTIC DISTORTION 1
  0.5773503  0.0000000  0.0000000
  0.0000000  0.5773503  0.0000000
  0.0000000  0.0000000  0.5773503

 SYMMETRY ALLOWED ELASTIC DISTORTION 2
  0.4082483  0.0000000  0.0000000
  0.0000000  0.4082483  0.0000000
  0.0000000  0.0000000 -0.8164966

 SYMMETRY ALLOWED INTERNAL DEGREE(S) OF FREEDOM:   9
 TTTTTTTTTTTTTTTTTTTTTTTTTTTTTT SYMM        TELAPSE        0.10 TCPU        0.00
 *******************************************************************************
 COORDINATE AND CELL OPTIMIZATION - POINT    1
 INFORMATION **** EXCBUF **** EXCH. BIPO BUFFER: WORDS USED =    360000
 WARNING **** EXCBUF **** EXCH. BIPO BUFFER TOO SMALL - TO AVOID I/O SET EXCHSIZE =    677871

 DFT PARAMETERS

     ATOM       ELECTRONS   NET CHARGE   R(ANGSTROM)
   1  26  FE     23.0000      3.0000     0.64000000
   5   8  O      10.0000     -2.0000     1.40000000

 SIZE OF GRID=      68950
 TTTTTTTTTTTTTTTTTTTTTTTTTTTTTT MAKEGRID    TELAPSE      230.36 TCPU      153.56
 BECKE WEIGHT FUNCTION
 RADSAFE =     2.00
 TOLERANCES - DENSITY:10**- 6; POTENTIAL:10**- 9; GRID WGT:10**-14

 RADIAL INTEGRATION  - INTERVALS (POINTS,UPPER LIMIT):            1( 75,  4.0*R)

 ANGULAR INTEGRATION - INTERVALS (ACCURACY LEVEL [N. POINTS] UPPER LIMIT):
  1(  4[  86]   0.2)  2(  8[ 194]   0.5)  3( 12[ 350]   0.9)  4( 16[ 974]   3.5)
  5( 12[ 350]9999.0)

 *******************************************************************************
 HEMATITE                                                                        
 CRYSTAL - SCF - TYPE OF CALCULATION :  UNRESTRICTED OPEN SHELL
 *******************************************************************************
 TTTTTTTTTTTTTTTTTTTTTTTTTTTTTT SDIK        TELAPSE      232.69 TCPU      154.78

 AAAAAAAAAAAAAAAAAAAAAAAAAAAAAAAAAAAAAAAAAAAAAAAAAAAAAAAAAAAAAAAAAAAAAAAAAAAAAAA
         ATOMIC WAVEFUNCTION(S)


 NUCLEAR CHARGE 26.0  SYMMETRY SPECIES            S    P    D
 N. ELECTRONS   23.0  NUMBER OF PRIMITIVE GTOS   20   12    5
                      NUMBER OF CONTRACTED GTOS   5    4    2
                      NUMBER OF CLOSED SHELLS     3    2    0
                      OPEN SHELL OCCUPATION       0    0    5

  ZNUC SCFIT  TOTAL HF ENERGY   KINETIC ENERGY   VIRIAL THEOREM ACCURACY
  26.0  15   -1.260550909E+03  1.260303924E+03 -2.000195972E+00  2.8E-06

 NUCLEAR CHARGE  8.0  SYMMETRY SPECIES            S    P
 N. ELECTRONS   10.0  NUMBER OF PRIMITIVE GTOS   14    6
                      NUMBER OF CONTRACTED GTOS   4    3
                      NUMBER OF CLOSED SHELLS     2    1
                      OPEN SHELL OCCUPATION       0    0

  ZNUC SCFIT  TOTAL HF ENERGY   KINETIC ENERGY   VIRIAL THEOREM ACCURACY
   8.0  61   -7.433102083E+01  7.469307318E+01 -1.995152799E+00  4.6E-06

 AAAAAAAAAAAAAAAAAAAAAAAAAAAAAAAAAAAAAAAAAAAAAAAAAAAAAAAAAAAAAAAAAAAAAAAAAAAAAAA

 CHARGE NORMALIZATION FACTOR   1.00000000
 TOTAL ATOMIC CHARGES:
  23.0000000  23.0000000  23.0000000  23.0000000  10.0000000  10.0000000
  10.0000000  10.0000000  10.0000000  10.0000000
 SUMMED SPIN DENSITY           0.00000000
 TOTAL ATOMIC SPINS  :
   5.0000000  -5.0000000  -5.0000000   5.0000000   0.0000000   0.0000000
   0.0000000   0.0000000   0.0000000   0.0000000
 TTTTTTTTTTTTTTTTTTTTTTTTTTTTTT MOQGAD      TELAPSE      233.11 TCPU      154.98
 TTTTTTTTTTTTTTTTTTTTTTTTTTTTTT SHELLX      TELAPSE      358.77 TCPU      237.77
 TTTTTTTTTTTTTTTTTTTTTTTTTTTTTT MONMO3      TELAPSE      360.89 TCPU      239.50
 NUMERICALLY INTEGRATED DENSITY     76.0000180175     75.9999626776
 TTTTTTTTTTTTTTTTTTTTTTTTTTTTTT NUMDFT      TELAPSE      395.31 TCPU      261.97
 CYC   0 ETOT(AU) -5.509066826333E+03 DETOT -5.51E+03 tst  0.00E+00 PX  1.00E+00
 TTTTTTTTTTTTTTTTTTTTTTTTTTTTTT FDIK        TELAPSE      427.66 TCPU      283.13
 INSULATING STATE - TOP OF VALENCE BANDS (A.U.) -1.0000000E+00
 TTTTTTTTTTTTTTTTTTTTTTTTTTTTTT PDIG        TELAPSE      431.13 TCPU      285.07
 CHARGE NORMALIZATION FACTOR   1.00000000
 TOTAL ATOMIC CHARGES:
  23.6468321  23.6467983  23.6466796  23.6467110   9.5688303   9.5688303
   9.5688303   9.5688293   9.5688293   9.5688293
 SUMMED SPIN DENSITY           0.00000000
 TOTAL ATOMIC SPINS  :
   4.4784950  -4.4784999  -4.4785972   4.4785945  -0.0000569  -0.0000569
  -0.0000569   0.0000595   0.0000595   0.0000595
 TTTTTTTTTTTTTTTTTTTTTTTTTTTTTT MOQGAD      TELAPSE      431.48 TCPU      285.25
 TTTTTTTTTTTTTTTTTTTTTTTTTTTTTT SHELLX      TELAPSE      574.15 TCPU      377.50
 TTTTTTTTTTTTTTTTTTTTTTTTTTTTTT MONMO3      TELAPSE      577.82 TCPU      379.23
 NUMERICALLY INTEGRATED DENSITY     76.0000211265     75.9999682387
 TTTTTTTTTTTTTTTTTTTTTTTTTTTTTT NUMDFT      TELAPSE      664.97 TCPU      443.41
 CYC   1 ETOT(AU) -5.505182324578E+03 DETOT  3.88E+00 tst  0.00E+00 PX  1.00E+00
 TTTTTTTTTTTTTTTTTTTTTTTTTTTTTT FDIK        TELAPSE      684.15 TCPU      452.68
 INSULATING STATE - TOP OF VALENCE BANDS (A.U.) -1.0000000E+00
 TTTTTTTTTTTTTTTTTTTTTTTTTTTTTT PDIG        TELAPSE      687.35 TCPU      454.63
 CHARGE NORMALIZATION FACTOR   1.00000000
 TOTAL ATOMIC CHARGES:
  23.7209708  23.7209849  23.7209094  23.7208894   9.5193744   9.5193744
   9.5193744   9.5193741   9.5193741   9.5193741
 SUMMED SPIN DENSITY           0.00000000
 TOTAL ATOMIC SPINS  :
   4.4013128  -4.4012741  -4.4013463   4.4013876  -0.0000752  -0.0000752
  -0.0000752   0.0000486   0.0000486   0.0000486
 TTTTTTTTTTTTTTTTTTTTTTTTTTTTTT MOQGAD      TELAPSE      687.65 TCPU      454.82
 TTTTTTTTTTTTTTTTTTTTTTTTTTTTTT SHELLX      TELAPSE      829.45 TCPU      546.36
 TTTTTTTTTTTTTTTTTTTTTTTTTTTTTT MONMO3      TELAPSE      832.82 TCPU      548.15
 NUMERICALLY INTEGRATED DENSITY     76.0000226547     75.9999698830
 TTTTTTTTTTTTTTTTTTTTTTTTTTTTTT NUMDFT      TELAPSE      916.15 TCPU      613.34
 CYC   2 ETOT(AU) -5.505276035558E+03 DETOT -9.37E-02 tst  1.17E-03 PX  3.44E-02
 TTTTTTTTTTTTTTTTTTTTTTTTTTTTTT FDIK        TELAPSE      940.98 TCPU      622.65
 INSULATING STATE - TOP OF VALENCE BANDS (A.U.) -1.0000000E+00
 TTTTTTTTTTTTTTTTTTTTTTTTTTTTTT PDIG        TELAPSE      944.66 TCPU      624.67
 CHARGE NORMALIZATION FACTOR   1.00000000
 TOTAL ATOMIC CHARGES:
  23.7596481  23.7597029  23.7596572  23.7596034   9.4935647   9.4935647
   9.4935647   9.4935648   9.4935648   9.4935648
 SUMMED SPIN DENSITY           0.00000000
 TOTAL ATOMIC SPINS  :
   4.3488837  -4.3488252  -4.3488752   4.3489338  -0.0000839  -0.0000839
  -0.0000839   0.0000448   0.0000448   0.0000448
 TTTTTTTTTTTTTTTTTTTTTTTTTTTTTT MOQGAD      TELAPSE      944.93 TCPU      624.85
 TTTTTTTTTTTTTTTTTTTTTTTTTTTTTT SHELLX      TELAPSE     1075.46 TCPU      716.07
 TTTTTTTTTTTTTTTTTTTTTTTTTTTTTT MONMO3      TELAPSE     1077.89 TCPU      717.81
 NUMERICALLY INTEGRATED DENSITY     76.0000236601     75.9999709164
 TTTTTTTTTTTTTTTTTTTTTTTTTTTTTT NUMDFT      TELAPSE     1164.56 TCPU      782.19
 CYC   3 ETOT(AU) -5.505288243789E+03 DETOT -1.22E-02 tst  3.73E-04 PX  1.29E-02
 TTTTTTTTTTTTTTTTTTTTTTTTTTTTTT FDIK        TELAPSE     1182.78 TCPU      791.15
 INSULATING STATE - TOP OF VALENCE BANDS (A.U.) -1.0000000E+00
 TTTTTTTTTTTTTTTTTTTTTTTTTTTTTT PDIG        TELAPSE     1185.93 TCPU      793.16
 CHARGE NORMALIZATION FACTOR   1.00000000
 TOTAL ATOMIC CHARGES:
  23.7667687  23.7668166  23.7667787  23.7667320   9.4888173   9.4888173
   9.4888173   9.4888174   9.4888174   9.4888174
 SUMMED SPIN DENSITY           0.00000000
 TOTAL ATOMIC SPINS  :
   4.3268462  -4.3267740  -4.3268175   4.3268885  -0.0000905  -0.0000905
  -0.0000905   0.0000427   0.0000427   0.0000427
 TTTTTTTTTTTTTTTTTTTTTTTTTTTTTT MOQGAD      TELAPSE     1186.11 TCPU      793.34
 TTTTTTTTTTTTTTTTTTTTTTTTTTTTTT SHELLX      TELAPSE     1315.89 TCPU      885.91
 TTTTTTTTTTTTTTTTTTTTTTTTTTTTTT MONMO3      TELAPSE     1318.51 TCPU      887.72
 NUMERICALLY INTEGRATED DENSITY     76.0000241050     75.9999712962
 TTTTTTTTTTTTTTTTTTTTTTTTTTTTTT NUMDFT      TELAPSE     1404.43 TCPU      951.72
 CYC   4 ETOT(AU) -5.505292517946E+03 DETOT -4.27E-03 tst  3.70E-05 PX  7.29E-03
 TTTTTTTTTTTTTTTTTTTTTTTTTTTTTT FDIK        TELAPSE     1423.33 TCPU      960.66
 INSULATING STATE - TOP OF VALENCE BANDS (A.U.) -1.0000000E+00
 TTTTTTTTTTTTTTTTTTTTTTTTTTTTTT PDIG        TELAPSE     1426.15 TCPU      962.63
 CHARGE NORMALIZATION FACTOR   1.00000000
 TOTAL ATOMIC CHARGES:
  23.7693780  23.7694226  23.7693852  23.7693400   9.4870789   9.4870789
   9.4870789   9.4870791   9.4870791   9.4870791
 SUMMED SPIN DENSITY           0.00000000
 TOTAL ATOMIC SPINS  :
   4.3141255  -4.3140588  -4.3141007   4.3141675  -0.0000903  -0.0000903
  -0.0000903   0.0000458   0.0000458   0.0000458
 TTTTTTTTTTTTTTTTTTTTTTTTTTTTTT MOQGAD      TELAPSE     1426.37 TCPU      962.78
 TTTTTTTTTTTTTTTTTTTTTTTTTTTTTT SHELLX      TELAPSE     1552.94 TCPU     1053.79
 TTTTTTTTTTTTTTTTTTTTTTTTTTTTTT MONMO3      TELAPSE     1554.71 TCPU     1055.50
 NUMERICALLY INTEGRATED DENSITY     76.0000242824     75.9999714400
 TTTTTTTTTTTTTTTTTTTTTTTTTTTTTT NUMDFT      TELAPSE     1619.00 TCPU     1118.43
 CYC   5 ETOT(AU) -5.505294211124E+03 DETOT -1.69E-03 tst  1.88E-05 PX  3.89E-03
 TTTTTTTTTTTTTTTTTTTTTTTTTTTTTT FDIK        TELAPSE     1628.33 TCPU     1127.25
 INSULATING STATE - TOP OF VALENCE BANDS (A.U.) -1.0000000E+00
 TTTTTTTTTTTTTTTTTTTTTTTTTTTTTT PDIG        TELAPSE     1630.30 TCPU     1129.12
 CHARGE NORMALIZATION FACTOR   1.00000000
 TOTAL ATOMIC CHARGES:
  23.7747547  23.7747978  23.7747586  23.7747146   9.4834958   9.4834958
   9.4834958   9.4834956   9.4834956   9.4834956
 SUMMED SPIN DENSITY           0.00000000
 TOTAL ATOMIC SPINS  :
   4.3026530  -4.3025875  -4.3026290   4.3026949  -0.0000915  -0.0000915
  -0.0000915   0.0000477   0.0000477   0.0000477
 TTTTTTTTTTTTTTTTTTTTTTTTTTTTTT MOQGAD      TELAPSE     1630.52 TCPU     1129.30
 TTTTTTTTTTTTTTTTTTTTTTTTTTTTTT SHELLX      TELAPSE     1717.85 TCPU     1216.38
 TTTTTTTTTTTTTTTTTTTTTTTTTTTTTT MONMO3      TELAPSE     1719.57 TCPU     1218.09
 NUMERICALLY INTEGRATED DENSITY     76.0000243705     75.9999715343
 TTTTTTTTTTTTTTTTTTTTTTTTTTTTTT NUMDFT      TELAPSE     1780.42 TCPU     1278.57
 CYC   6 ETOT(AU) -5.505294927496E+03 DETOT -7.16E-04 tst  1.54E-05 PX  2.56E-03
 TTTTTTTTTTTTTTTTTTTTTTTTTTTTTT FDIK        TELAPSE     1788.90 TCPU     1287.03
 INSULATING STATE - TOP OF VALENCE BANDS (A.U.) -1.0000000E+00
 TTTTTTTTTTTTTTTTTTTTTTTTTTTTTT PDIG        TELAPSE     1790.80 TCPU     1288.91
 CHARGE NORMALIZATION FACTOR   1.00000000
 TOTAL ATOMIC CHARGES:
  23.7803021  23.7803451  23.7803047  23.7802617   9.4797977   9.4797977
   9.4797977   9.4797977   9.4797977   9.4797977
 SUMMED SPIN DENSITY           0.00000000
 TOTAL ATOMIC SPINS  :
   4.2930121  -4.2929457  -4.2929875   4.2930539  -0.0000932  -0.0000932
  -0.0000932   0.0000490   0.0000490   0.0000490
 TTTTTTTTTTTTTTTTTTTTTTTTTTTTTT MOQGAD      TELAPSE     1790.97 TCPU     1289.09
 TTTTTTTTTTTTTTTTTTTTTTTTTTTTTT SHELLX      TELAPSE     1878.33 TCPU     1376.24
 TTTTTTTTTTTTTTTTTTTTTTTTTTTTTT MONMO3      TELAPSE     1880.04 TCPU     1377.95
 NUMERICALLY INTEGRATED DENSITY     76.0000244371     75.9999716164
 TTTTTTTTTTTTTTTTTTTTTTTTTTTTTT NUMDFT      TELAPSE     1940.81 TCPU     1438.58
 CYC   7 ETOT(AU) -5.505295310244E+03 DETOT -3.83E-04 tst  1.10E-05 PX  1.99E-03
 TTTTTTTTTTTTTTTTTTTTTTTTTTTTTT FDIK        TELAPSE     1949.36 TCPU     1447.08
 INSULATING STATE - TOP OF VALENCE BANDS (A.U.) -1.0000000E+00
 TTTTTTTTTTTTTTTTTTTTTTTTTTTTTT PDIG        TELAPSE     1951.22 TCPU     1448.94
 CHARGE NORMALIZATION FACTOR   1.00000000
 TOTAL ATOMIC CHARGES:
  23.7842041  23.7842464  23.7842055  23.7841641   9.4771967   9.4771967
   9.4771967   9.4771966   9.4771966   9.4771966
 SUMMED SPIN DENSITY           0.00000000
 TOTAL ATOMIC SPINS  :
   4.2860511  -4.2859838  -4.2860257   4.2860923  -0.0000948  -0.0000948
  -0.0000948   0.0000501   0.0000501   0.0000501
 TTTTTTTTTTTTTTTTTTTTTTTTTTTTTT MOQGAD      TELAPSE     1951.39 TCPU     1449.11
 TTTTTTTTTTTTTTTTTTTTTTTTTTTTTT SHELLX      TELAPSE     2038.44 TCPU     1536.11
 TTTTTTTTTTTTTTTTTTTTTTTTTTTTTT MONMO3      TELAPSE     2040.15 TCPU     1537.82
 NUMERICALLY INTEGRATED DENSITY     76.0000244923     75.9999716805
 TTTTTTTTTTTTTTTTTTTTTTTTTTTTTT NUMDFT      TELAPSE     2100.66 TCPU     1598.31
 CYC   8 ETOT(AU) -5.505295515870E+03 DETOT -2.06E-04 tst  5.92E-06 PX  1.54E-03
 TTTTTTTTTTTTTTTTTTTTTTTTTTTTTT FDIK        TELAPSE     2109.12 TCPU     1606.77
 INSULATING STATE - TOP OF VALENCE BANDS (A.U.) -1.0000000E+00
 TTTTTTTTTTTTTTTTTTTTTTTTTTTTTT PDIG        TELAPSE     2110.99 TCPU     1608.64
 CHARGE NORMALIZATION FACTOR   1.00000000
 TOTAL ATOMIC CHARGES:
  23.7866956  23.7867371  23.7866962  23.7866552   9.4755361   9.4755361
   9.4755361   9.4755359   9.4755359   9.4755359
 SUMMED SPIN DENSITY           0.00000000
 TOTAL ATOMIC SPINS  :
   4.2812695  -4.2812025  -4.2812442   4.2813107  -0.0000956  -0.0000956
  -0.0000956   0.0000511   0.0000511   0.0000511
 TTTTTTTTTTTTTTTTTTTTTTTTTTTTTT MOQGAD      TELAPSE     2111.16 TCPU     1608.81
 TTTTTTTTTTTTTTTTTTTTTTTTTTTTTT SHELLX      TELAPSE     2198.45 TCPU     1695.83
 TTTTTTTTTTTTTTTTTTTTTTTTTTTTTT MONMO3      TELAPSE     2200.15 TCPU     1697.53
 NUMERICALLY INTEGRATED DENSITY     76.0000245340     75.9999717254
 TTTTTTTTTTTTTTTTTTTTTTTTTTTTTT NUMDFT      TELAPSE     2260.98 TCPU     1758.10
 CYC   9 ETOT(AU) -5.505295625436E+03 DETOT -1.10E-04 tst  2.90E-06 PX  1.12E-03
 TTTTTTTTTTTTTTTTTTTTTTTTTTTTTT FDIK        TELAPSE     2269.43 TCPU     1766.55
 INSULATING STATE - TOP OF VALENCE BANDS (A.U.) -1.0000000E+00
 TTTTTTTTTTTTTTTTTTTTTTTTTTTTTT PDIG        TELAPSE     2271.30 TCPU     1768.42
 CHARGE NORMALIZATION FACTOR   1.00000000
 TOTAL ATOMIC CHARGES:
  23.7884072  23.7884483  23.7884076  23.7883667   9.4743951   9.4743951
   9.4743951   9.4743949   9.4743949   9.4743949
 SUMMED SPIN DENSITY           0.00000000
 TOTAL ATOMIC SPINS  :
   4.2779026  -4.2778356  -4.2778771   4.2779437  -0.0000963  -0.0000963
  -0.0000963   0.0000518   0.0000518   0.0000518
 TTTTTTTTTTTTTTTTTTTTTTTTTTTTTT MOQGAD      TELAPSE     2271.47 TCPU     1768.59
 TTTTTTTTTTTTTTTTTTTTTTTTTTTTTT SHELLX      TELAPSE     2358.43 TCPU     1855.45
 TTTTTTTTTTTTTTTTTTTTTTTTTTTTTT MONMO3      TELAPSE     2360.15 TCPU     1857.16
 NUMERICALLY INTEGRATED DENSITY     76.0000245639     75.9999717564
 TTTTTTTTTTTTTTTTTTTTTTTTTTTTTT NUMDFT      TELAPSE     2420.94 TCPU     1917.80
 CYC  10 ETOT(AU) -5.505295682797E+03 DETOT -5.74E-05 tst  1.54E-06 PX  8.04E-04
 TTTTTTTTTTTTTTTTTTTTTTTTTTTTTT FDIK        TELAPSE     2429.35 TCPU     1926.21
 INSULATING STATE - TOP OF VALENCE BANDS (A.U.) -1.0000000E+00
 TTTTTTTTTTTTTTTTTTTTTTTTTTTTTT PDIG        TELAPSE     2431.23 TCPU     1928.09
 CHARGE NORMALIZATION FACTOR   1.00000000
 TOTAL ATOMIC CHARGES:
  23.7896629  23.7897039  23.7896631  23.7896224   9.4735580   9.4735580
   9.4735580   9.4735579   9.4735579   9.4735579
 SUMMED SPIN DENSITY           0.00000000
 TOTAL ATOMIC SPINS  :
   4.2754669  -4.2753998  -4.2754411   4.2755080  -0.0000969  -0.0000969
  -0.0000969   0.0000523   0.0000523   0.0000523
 TTTTTTTTTTTTTTTTTTTTTTTTTTTTTT MOQGAD      TELAPSE     2431.41 TCPU     1928.27
 TTTTTTTTTTTTTTTTTTTTTTTTTTTTTT SHELLX      TELAPSE     2518.33 TCPU     2015.08
 TTTTTTTTTTTTTTTTTTTTTTTTTTTTTT MONMO3      TELAPSE     2520.04 TCPU     2016.78
 NUMERICALLY INTEGRATED DENSITY     76.0000245851     75.9999717785
 TTTTTTTTTTTTTTTTTTTTTTTTTTTTTT NUMDFT      TELAPSE     2580.42 TCPU     2077.14
 CYC  11 ETOT(AU) -5.505295713217E+03 DETOT -3.04E-05 tst  8.76E-07 PX  5.79E-04
 TTTTTTTTTTTTTTTTTTTTTTTTTTTTTT FDIK        TELAPSE     2588.92 TCPU     2085.60
 INSULATING STATE - TOP OF VALENCE BANDS (A.U.) -1.0000000E+00
 TTTTTTTTTTTTTTTTTTTTTTTTTTTTTT PDIG        TELAPSE     2590.78 TCPU     2087.46
 CHARGE NORMALIZATION FACTOR   1.00000000
 TOTAL ATOMIC CHARGES:
  23.7905827  23.7906238  23.7905828  23.7905420   9.4729449   9.4729449
   9.4729449   9.4729447   9.4729447   9.4729447
 SUMMED SPIN DENSITY           0.00000000
 TOTAL ATOMIC SPINS  :
   4.2737030  -4.2736357  -4.2736772   4.2737443  -0.0000975  -0.0000975
  -0.0000975   0.0000527   0.0000527   0.0000527
 TTTTTTTTTTTTTTTTTTTTTTTTTTTTTT MOQGAD      TELAPSE     2590.96 TCPU     2087.64
 TTTTTTTTTTTTTTTTTTTTTTTTTTTTTT SHELLX      TELAPSE     2679.29 TCPU     2175.17
 TTTTTTTTTTTTTTTTTTTTTTTTTTTTTT MONMO3      TELAPSE     2680.99 TCPU     2176.87
 NUMERICALLY INTEGRATED DENSITY     76.0000246004     75.9999717943
 TTTTTTTTTTTTTTTTTTTTTTTTTTTTTT NUMDFT      TELAPSE     2741.33 TCPU     2237.22
 CYC  12 ETOT(AU) -5.505295729708E+03 DETOT -1.65E-05 tst  4.98E-07 PX  4.21E-04
 TTTTTTTTTTTTTTTTTTTTTTTTTTTTTT FDIK        TELAPSE     2749.76 TCPU     2245.64
 INSULATING STATE - TOP OF VALENCE BANDS (A.U.) -1.0000000E+00
 TTTTTTTTTTTTTTTTTTTTTTTTTTTTTT PDIG        TELAPSE     2751.64 TCPU     2247.52
 CHARGE NORMALIZATION FACTOR   1.00000000
 TOTAL ATOMIC CHARGES:
  23.7912426  23.7912838  23.7912427  23.7912019   9.4725049   9.4725049
   9.4725049   9.4725047   9.4725047   9.4725047
 SUMMED SPIN DENSITY           0.00000000
 TOTAL ATOMIC SPINS  :
   4.2724357  -4.2723681  -4.2724095   4.2724768  -0.0000979  -0.0000979
  -0.0000979   0.0000530   0.0000530   0.0000530
 TTTTTTTTTTTTTTTTTTTTTTTTTTTTTT MOQGAD      TELAPSE     2751.81 TCPU     2247.70
 TTTTTTTTTTTTTTTTTTTTTTTTTTTTTT SHELLX      TELAPSE     2838.82 TCPU     2334.52
 TTTTTTTTTTTTTTTTTTTTTTTTTTTTTT MONMO3      TELAPSE     2840.58 TCPU     2336.20
 NUMERICALLY INTEGRATED DENSITY     76.0000246117     75.9999718056
 TTTTTTTTTTTTTTTTTTTTTTTTTTTTTT NUMDFT      TELAPSE     2901.05 TCPU     2396.58
 CYC  13 ETOT(AU) -5.505295738791E+03 DETOT -9.08E-06 tst  2.79E-07 PX  3.06E-04
 TTTTTTTTTTTTTTTTTTTTTTTTTTTTTT FDIK        TELAPSE     2909.49 TCPU     2405.02
 INSULATING STATE - TOP OF VALENCE BANDS (A.U.) -1.0000000E+00
 TTTTTTTTTTTTTTTTTTTTTTTTTTTTTT PDIG        TELAPSE     2911.36 TCPU     2406.89
 CHARGE NORMALIZATION FACTOR   1.00000000
 TOTAL ATOMIC CHARGES:
  23.7917131  23.7917542  23.7917132  23.7916723   9.4721913   9.4721913
   9.4721913   9.4721911   9.4721911   9.4721911
 SUMMED SPIN DENSITY           0.00000000
 TOTAL ATOMIC SPINS  :
   4.2715279  -4.2714603  -4.2715017   4.2715690  -0.0000982  -0.0000982
  -0.0000982   0.0000532   0.0000532   0.0000532
 TTTTTTTTTTTTTTTTTTTTTTTTTTTTTT MOQGAD      TELAPSE     2911.54 TCPU     2407.07
 TTTTTTTTTTTTTTTTTTTTTTTTTTTTTT SHELLX      TELAPSE     2998.74 TCPU     2494.16
 TTTTTTTTTTTTTTTTTTTTTTTTTTTTTT MONMO3      TELAPSE     3000.44 TCPU     2495.87
 NUMERICALLY INTEGRATED DENSITY     76.0000246199     75.9999718137
 TTTTTTTTTTTTTTTTTTTTTTTTTTTTTT NUMDFT      TELAPSE     3061.08 TCPU     2556.34
 CYC  14 ETOT(AU) -5.505295743869E+03 DETOT -5.08E-06 tst  1.56E-07 PX  2.22E-04
 TTTTTTTTTTTTTTTTTTTTTTTTTTTTTT FDIK        TELAPSE     3069.58 TCPU     2564.78
 INSULATING STATE - TOP OF VALENCE BANDS (A.U.) -1.0000000E+00
 TTTTTTTTTTTTTTTTTTTTTTTTTTTTTT PDIG        TELAPSE     3071.46 TCPU     2566.67
 CHARGE NORMALIZATION FACTOR   1.00000000
 TOTAL ATOMIC CHARGES:
  23.7920502  23.7920913  23.7920502  23.7920094   9.4719666   9.4719666
   9.4719666   9.4719664   9.4719664   9.4719664
 SUMMED SPIN DENSITY           0.00000000
 TOTAL ATOMIC SPINS  :
   4.2708767  -4.2708090  -4.2708505   4.2709178  -0.0000985  -0.0000985
  -0.0000985   0.0000535   0.0000535   0.0000535
 TTTTTTTTTTTTTTTTTTTTTTTTTTTTTT MOQGAD      TELAPSE     3071.64 TCPU     2566.84
 TTTTTTTTTTTTTTTTTTTTTTTTTTTTTT SHELLX      TELAPSE     3159.58 TCPU     2653.81
 TTTTTTTTTTTTTTTTTTTTTTTTTTTTTT MONMO3      TELAPSE     3161.28 TCPU     2655.51
 NUMERICALLY INTEGRATED DENSITY     76.0000246260     75.9999718195
 TTTTTTTTTTTTTTTTTTTTTTTTTTTTTT NUMDFT      TELAPSE     3222.70 TCPU     2716.23
 CYC  15 ETOT(AU) -5.505295746760E+03 DETOT -2.89E-06 tst  8.78E-08 PX  1.62E-04
 TTTTTTTTTTTTTTTTTTTTTTTTTTTTTT FDIK        TELAPSE     3231.09 TCPU     2724.62
 INSULATING STATE - TOP OF VALENCE BANDS (A.U.) -1.0000000E+00
 TTTTTTTTTTTTTTTTTTTTTTTTTTTTTT PDIG        TELAPSE     3232.97 TCPU     2726.50
 CHARGE NORMALIZATION FACTOR   1.00000000
 TOTAL ATOMIC CHARGES:
  23.7922930  23.7923340  23.7922929  23.7922521   9.4718048   9.4718048
   9.4718048   9.4718046   9.4718046   9.4718046
 SUMMED SPIN DENSITY           0.00000000
 TOTAL ATOMIC SPINS  :
   4.2704089  -4.2703412  -4.2703827   4.2704501  -0.0000987  -0.0000987
  -0.0000987   0.0000536   0.0000536   0.0000536
 TTTTTTTTTTTTTTTTTTTTTTTTTTTTTT MOQGAD      TELAPSE     3233.14 TCPU     2726.68
 TTTTTTTTTTTTTTTTTTTTTTTTTTTTTT SHELLX      TELAPSE     3320.01 TCPU     2813.51
 TTTTTTTTTTTTTTTTTTTTTTTTTTTTTT MONMO3      TELAPSE     3321.71 TCPU     2815.21
 NUMERICALLY INTEGRATED DENSITY     76.0000246304     75.9999718236
 TTTTTTTTTTTTTTTTTTTTTTTTTTTTTT NUMDFT      TELAPSE     3382.30 TCPU     2875.70
 CYC  16 ETOT(AU) -5.505295748449E+03 DETOT -1.69E-06 tst  4.99E-08 PX  1.18E-04
 TTTTTTTTTTTTTTTTTTTTTTTTTTTTTT FDIK        TELAPSE     3390.74 TCPU     2884.13
 INSULATING STATE - TOP OF VALENCE BANDS (A.U.) -1.0000000E+00
 TTTTTTTTTTTTTTTTTTTTTTTTTTTTTT PDIG        TELAPSE     3392.69 TCPU     2886.07
 CHARGE NORMALIZATION FACTOR   1.00000000
 TOTAL ATOMIC CHARGES:
  23.7924678  23.7925089  23.7924678  23.7924269   9.4716882   9.4716882
   9.4716882   9.4716880   9.4716880   9.4716880
 SUMMED SPIN DENSITY           0.00000000
 TOTAL ATOMIC SPINS  :
   4.2700728  -4.2700051  -4.2700465   4.2701139  -0.0000988  -0.0000988
  -0.0000988   0.0000538   0.0000538   0.0000538
 TTTTTTTTTTTTTTTTTTTTTTTTTTTTTT MOQGAD      TELAPSE     3392.87 TCPU     2886.25
 TTTTTTTTTTTTTTTTTTTTTTTTTTTTTT SHELLX      TELAPSE     3482.99 TCPU     2975.87
 TTTTTTTTTTTTTTTTTTTTTTTTTTTTTT MONMO3      TELAPSE     3484.73 TCPU     2977.59
 NUMERICALLY INTEGRATED DENSITY     76.0000246338     75.9999718265
 TTTTTTTTTTTTTTTTTTTTTTTTTTTTTT NUMDFT      TELAPSE     3545.47 TCPU     3038.24
 CYC  17 ETOT(AU) -5.505295749465E+03 DETOT -1.02E-06 tst  2.85E-08 PX  8.56E-05
 TTTTTTTTTTTTTTTTTTTTTTTTTTTTTT FDIK        TELAPSE     3553.83 TCPU     3046.60
 INSULATING STATE - TOP OF VALENCE BANDS (A.U.) -1.0000000E+00
 TTTTTTTTTTTTTTTTTTTTTTTTTTTTTT PDIG        TELAPSE     3555.69 TCPU     3048.45
 CHARGE NORMALIZATION FACTOR   1.00000000
 TOTAL ATOMIC CHARGES:
  23.7925938  23.7926349  23.7925937  23.7925529   9.4716042   9.4716042
   9.4716042   9.4716040   9.4716040   9.4716040
 SUMMED SPIN DENSITY           0.00000000
 TOTAL ATOMIC SPINS  :
   4.2698314  -4.2697637  -4.2698051   4.2698726  -0.0000989  -0.0000989
  -0.0000989   0.0000539   0.0000539   0.0000539
 TTTTTTTTTTTTTTTTTTTTTTTTTTTTTT MOQGAD      TELAPSE     3555.86 TCPU     3048.63
 TTTTTTTTTTTTTTTTTTTTTTTTTTTTTT SHELLX      TELAPSE     3643.19 TCPU     3135.62
 TTTTTTTTTTTTTTTTTTTTTTTTTTTTTT MONMO3      TELAPSE     3644.89 TCPU     3137.32
 NUMERICALLY INTEGRATED DENSITY     76.0000246362     75.9999718287
 TTTTTTTTTTTTTTTTTTTTTTTTTTTTTT NUMDFT      TELAPSE     3705.52 TCPU     3197.90
 CYC  18 ETOT(AU) -5.505295750097E+03 DETOT -6.32E-07 tst  1.63E-08 PX  6.24E-05
 TTTTTTTTTTTTTTTTTTTTTTTTTTTTTT FDIK        TELAPSE     3713.90 TCPU     3206.27
 INSULATING STATE - TOP OF VALENCE BANDS (A.U.) -1.0000000E+00
 TTTTTTTTTTTTTTTTTTTTTTTTTTTTTT PDIG        TELAPSE     3715.79 TCPU     3208.15
 CHARGE NORMALIZATION FACTOR   1.00000000
 TOTAL ATOMIC CHARGES:
  23.7926845  23.7927256  23.7926844  23.7926436   9.4715437   9.4715437
   9.4715437   9.4715435   9.4715435   9.4715435
 SUMMED SPIN DENSITY           0.00000000
 TOTAL ATOMIC SPINS  :
   4.2696581  -4.2695904  -4.2696319   4.2696993  -0.0000991  -0.0000991
  -0.0000991   0.0000540   0.0000540   0.0000540
 TTTTTTTTTTTTTTTTTTTTTTTTTTTTTT MOQGAD      TELAPSE     3715.97 TCPU     3208.33
 TTTTTTTTTTTTTTTTTTTTTTTTTTTTTT SHELLX      TELAPSE     3803.45 TCPU     3295.38
 TTTTTTTTTTTTTTTTTTTTTTTTTTTTTT MONMO3      TELAPSE     3805.15 TCPU     3297.08
 NUMERICALLY INTEGRATED DENSITY     76.0000246381     75.9999718302
 TTTTTTTTTTTTTTTTTTTTTTTTTTTTTT NUMDFT      TELAPSE     3866.17 TCPU     3357.84
 CYC  19 ETOT(AU) -5.505295750505E+03 DETOT -4.07E-07 tst  9.42E-09 PX  4.56E-05
 TTTTTTTTTTTTTTTTTTTTTTTTTTTTTT FDIK        TELAPSE     3885.86 TCPU     3366.47
 INSULATING STATE - TOP OF VALENCE BANDS (A.U.) -1.0000000E+00
 TTTTTTTTTTTTTTTTTTTTTTTTTTTTTT PDIG        TELAPSE     3888.24 TCPU     3368.43
 CHARGE NORMALIZATION FACTOR   1.00000000
 TOTAL ATOMIC CHARGES:
  23.7927499  23.7927910  23.7927498  23.7927090   9.4715001   9.4715001
   9.4715001   9.4714999   9.4714999   9.4714999
 SUMMED SPIN DENSITY           0.00000000
 TOTAL ATOMIC SPINS  :
   4.2695338  -4.2694661  -4.2695075   4.2695750  -0.0000991  -0.0000991
  -0.0000991   0.0000541   0.0000541   0.0000541
 TTTTTTTTTTTTTTTTTTTTTTTTTTTTTT MOQGAD      TELAPSE     3888.42 TCPU     3368.61
 TTTTTTTTTTTTTTTTTTTTTTTTTTTTTT SHELLX      TELAPSE     3978.40 TCPU     3456.83
 TTTTTTTTTTTTTTTTTTTTTTTTTTTTTT MONMO3      TELAPSE     3980.14 TCPU     3458.57
 NUMERICALLY INTEGRATED DENSITY     76.0000246395     75.9999718313
 TTTTTTTTTTTTTTTTTTTTTTTTTTTTTT NUMDFT      TELAPSE     4042.29 TCPU     3520.66
 CYC  20 ETOT(AU) -5.505295750776E+03 DETOT -2.72E-07 tst  5.53E-09 PX  3.33E-05
 TTTTTTTTTTTTTTTTTTTTTTTTTTTTTT FDIK        TELAPSE     4056.87 TCPU     3529.28
 INSULATING STATE - TOP OF VALENCE BANDS (A.U.) -1.0000000E+00
 TTTTTTTTTTTTTTTTTTTTTTTTTTTTTT PDIG        TELAPSE     4059.01 TCPU     3531.22
 CHARGE NORMALIZATION FACTOR   1.00000000
 TOTAL ATOMIC CHARGES:
  23.7927971  23.7928382  23.7927970  23.7927562   9.4714687   9.4714687
   9.4714687   9.4714685   9.4714685   9.4714685
 SUMMED SPIN DENSITY           0.00000000
 TOTAL ATOMIC SPINS  :
   4.2694446  -4.2693769  -4.2694183   4.2694858  -0.0000992  -0.0000992
  -0.0000992   0.0000541   0.0000541   0.0000541
 TTTTTTTTTTTTTTTTTTTTTTTTTTTTTT MOQGAD      TELAPSE     4059.19 TCPU     3531.39
 TTTTTTTTTTTTTTTTTTTTTTTTTTTTTT SHELLX      TELAPSE     4175.43 TCPU     3619.51
 TTTTTTTTTTTTTTTTTTTTTTTTTTTTTT MONMO3      TELAPSE     4177.13 TCPU     3621.21
 NUMERICALLY INTEGRATED DENSITY     76.0000246406     75.9999718321
 TTTTTTTTTTTTTTTTTTTTTTTTTTTTTT NUMDFT      TELAPSE     4238.55 TCPU     3681.93
 CYC  21 ETOT(AU) -5.505295750965E+03 DETOT -1.88E-07 tst  3.26E-09 PX  2.44E-05
 TTTTTTTTTTTTTTTTTTTTTTTTTTTTTT FDIK        TELAPSE     4247.98 TCPU     3690.34
 INSULATING STATE - TOP OF VALENCE BANDS (A.U.) -1.0000000E+00
 TTTTTTTTTTTTTTTTTTTTTTTTTTTTTT PDIG        TELAPSE     4249.87 TCPU     3692.23
 CHARGE NORMALIZATION FACTOR   1.00000000
 TOTAL ATOMIC CHARGES:
  23.7928311  23.7928722  23.7928310  23.7927902   9.4714460   9.4714460
   9.4714460   9.4714458   9.4714458   9.4714458
 SUMMED SPIN DENSITY           0.00000000
 TOTAL ATOMIC SPINS  :
   4.2693806  -4.2693129  -4.2693544   4.2694218  -0.0000993  -0.0000993
  -0.0000993   0.0000542   0.0000542   0.0000542
 TTTTTTTTTTTTTTTTTTTTTTTTTTTTTT MOQGAD      TELAPSE     4250.05 TCPU     3692.41
 TTTTTTTTTTTTTTTTTTTTTTTTTTTTTT SHELLX      TELAPSE     4337.19 TCPU     3779.42
 TTTTTTTTTTTTTTTTTTTTTTTTTTTTTT MONMO3      TELAPSE     4338.89 TCPU     3781.12
 NUMERICALLY INTEGRATED DENSITY     76.0000246414     75.9999718327
 TTTTTTTTTTTTTTTTTTTTTTTTTTTTTT NUMDFT      TELAPSE     4399.52 TCPU     3841.65
 CYC  22 ETOT(AU) -5.505295751100E+03 DETOT -1.35E-07 tst  1.93E-09 PX  1.79E-05
 TTTTTTTTTTTTTTTTTTTTTTTTTTTTTT FDIK        TELAPSE     4408.00 TCPU     3850.00
 INSULATING STATE - TOP OF VALENCE BANDS (A.U.) -1.0000000E+00
 TTTTTTTTTTTTTTTTTTTTTTTTTTTTTT PDIG        TELAPSE     4409.91 TCPU     3851.90
 CHARGE NORMALIZATION FACTOR   1.00000000
 TOTAL ATOMIC CHARGES:
  23.7928557  23.7928968  23.7928556  23.7928148   9.4714296   9.4714296
   9.4714296   9.4714294   9.4714294   9.4714294
 SUMMED SPIN DENSITY           0.00000000
 TOTAL ATOMIC SPINS  :
   4.2693348  -4.2692671  -4.2693086   4.2693760  -0.0000993  -0.0000993
  -0.0000993   0.0000542   0.0000542   0.0000542
 TTTTTTTTTTTTTTTTTTTTTTTTTTTTTT MOQGAD      TELAPSE     4410.08 TCPU     3852.07
 TTTTTTTTTTTTTTTTTTTTTTTTTTTTTT SHELLX      TELAPSE     4501.21 TCPU     3940.23
 TTTTTTTTTTTTTTTTTTTTTTTTTTTTTT MONMO3      TELAPSE     4503.05 TCPU     3941.95
 NUMERICALLY INTEGRATED DENSITY     76.0000246420     75.9999718331
 TTTTTTTTTTTTTTTTTTTTTTTTTTTTTT NUMDFT      TELAPSE     4576.76 TCPU     4005.61
 CYC  23 ETOT(AU) -5.505295751199E+03 DETOT -9.91E-08 tst  1.15E-09 PX  1.31E-05
 TTTTTTTTTTTTTTTTTTTTTTTTTTTTTT FDIK        TELAPSE     4586.57 TCPU     4014.10
 INSULATING STATE - TOP OF VALENCE BANDS (A.U.) -1.0000000E+00
 TTTTTTTTTTTTTTTTTTTTTTTTTTTTTT PDIG        TELAPSE     4588.47 TCPU     4016.01
 CHARGE NORMALIZATION FACTOR   1.00000000
 TOTAL ATOMIC CHARGES:
  23.7928735  23.7929146  23.7928734  23.7928326   9.4714178   9.4714178
   9.4714178   9.4714176   9.4714176   9.4714176
 SUMMED SPIN DENSITY           0.00000000
 TOTAL ATOMIC SPINS  :
   4.2693020  -4.2692343  -4.2692758   4.2693432  -0.0000993  -0.0000993
  -0.0000993   0.0000543   0.0000543   0.0000543
 TTTTTTTTTTTTTTTTTTTTTTTTTTTTTT MOQGAD      TELAPSE     4588.65 TCPU     4016.19
 TTTTTTTTTTTTTTTTTTTTTTTTTTTTTT SHELLX      TELAPSE     4682.65 TCPU     4105.22
 +++ ENERGIES IN A.U. +++
 ::: EXT EL-POLE                                  -3.3773722476704E+03
 ::: EXT EL-SPHEROPOLE                             3.8978835029485E+01
 ::: BIELET ZONE E-E                               4.8137245981254E+03
 ::: TOTAL E-E                                     1.4753311854845E+03
 ::: TOTAL E-N + N-E                              -1.1329741632333E+04
 ::: TOTAL N-N                                    -9.2620919294330E+02
 ::: KINETIC ENERGY                                5.4952050324612E+03
 ::: PSEUDO TOTAL   ENERGY                        -5.2854146073306E+03
 ::: VIRIAL COEFFICIENT                            1.0194599598298E+00
 TTTTTTTTTTTTTTTTTTTTTTTTTTTTTT MONMO3      TELAPSE     4684.45 TCPU     4106.97
 NUMERICALLY INTEGRATED DENSITY     76.0000246425     75.9999718334
 TTTTTTTTTTTTTTTTTTTTTTTTTTTTTT NUMDFT      TELAPSE     4751.21 TCPU     4168.62
 CYC  24 ETOT(AU) -5.505295751273E+03 DETOT -7.43E-08 tst  6.84E-10 PX  1.31E-05

 == SCF ENDED - CONVERGENCE ON ENERGY      E(AU) -5.5052957512729E+03 CYCLES  24


 ENERGY EXPRESSION=HARTREE+FOCK EXCH*0.20000+(PBE   EXCH)*0.80000+PBE   CORR


 TOTAL ENERGY(DFT)(AU)( 24) -5.5052957512729E+03 DE-7.4E-08 tst 6.8E-10
 TTTTTTTTTTTTTTTTTTTTTTTTTTTTTT EDFT        TELAPSE     4751.27 TCPU     4168.62

 *******************************************************************************
 *                             FORCE CALCULATION                               *
 *******************************************************************************

 TTTTTTTTTTTTTTTTTTTTTTTTTTTTTT NUMDFG      TELAPSE     5376.36 TCPU     4758.91
 INFORMATION **** EXCPOG **** EXCH. BIPO BUFFER LENGTH (WORDS) =   1440000
 WARNING **** EXCPOG **** EXCH. BIPO BUFFER TOO SMALL - TO AVOID I/O SET EXCHSIZE =    677871
 INFORMATION **** GENPOG **** BIPO BUFFER LENGTH (WORDS) =    249600
 TTTTTTTTTTTTTTTTTTTTTTTTTTTTTT SHELXG      TELAPSE     6326.75 TCPU     5685.31

 CARTESIAN FORCES (ANALYTICAL)
   ATOM                     X                   Y                   Z
   1  26             2.963614538961E-11  5.373967937317E-11  1.027917980583E-04
   2  26            -1.401474492013E-10  4.080585869204E-11  3.816489953490E-05
   3  26             1.401679513198E-10 -4.080306463076E-11 -7.732497343493E-05
   4  26            -2.963851386539E-11 -5.373523848107E-11 -1.417094955043E-04
   5   8             3.522932220013E-05 -2.175185005371E-05  8.092364890048E-06
   6   8             1.223083665699E-06  4.138552926469E-05  8.092451872196E-06
   7   8            -3.645242135097E-05 -1.963354901235E-05  8.092446800407E-06
   8   8            -3.426160797027E-05  2.360506000776E-05  1.793355901498E-05
   9   8            -3.311867651012E-06 -4.147406908483E-05  1.793347205076E-05
  10   8             3.757349108957E-05  1.786887887201E-05  1.793347713415E-05

 RESULTANT FORCE     1.277332460723E-15  7.956587049374E-16  4.164910603899E-13

ATOMIC PART

 SYMMETRY ALLOWED FORCES (ANALYTICAL) (DIRECTION, FORCE)

    1  1.0835207E-04    2  5.2594118E-05    3 -6.3827743E-05    4 -1.4324516E-04
    5  3.1885626E-05    6 -6.5285739E-05    7 -3.0184070E-06    8 -5.9342901E-05
    9  4.0885299E-05

CELL PART

 SYMMETRY ALLOWED FORCES (ANALYTICAL) (DIRECTION, FORCE)

    1 -7.5936673E-05    2 -4.0710024E-05
 TTTTTTTTTTTTTTTTTTTTTTTTTTTTTT TOTGRA      TELAPSE     6373.99 TCPU     5730.84
 *******************************************************************************
 LATTICE PARAMETERS (ANGSTROMS AND DEGREES) - BOHR = 0.5291772083 ANGSTROM
 PRIMITIVE CELL - CENTRING CODE 7/0 VOLUME=   100.954247 - DENSITY 5.259 g/cm^3
         A              B              C           ALPHA      BETA       GAMMA 
     5.42446793     5.42446793     5.42446793    55.455930  55.455930  55.455930
 *******************************************************************************
 ATOMS IN THE ASYMMETRIC UNIT    6 - ATOMS IN THE UNIT CELL:   10
     ATOM              X/A                 Y/B                 Z/C    
 *******************************************************************************
   1 T  26 FE    3.568630732264E-01  3.568630732265E-01  3.568630732265E-01
   2 T  26 FE1  -1.430962984744E-01 -1.430962984749E-01 -1.430962984749E-01
   3 T  26 FE1   1.431091065173E-01  1.431091065177E-01  1.431091065177E-01
   4 T  26 FE   -3.568503640015E-01 -3.568503640015E-01 -3.568503640015E-01
   5 T   8 O    -4.459165766971E-01 -5.410104405455E-02  2.500030037928E-01
   6 F   8 O     2.500030037927E-01 -4.459165766977E-01 -5.410104405380E-02
   7 F   8 O    -5.410104405381E-02  2.500030037931E-01 -4.459165766981E-01
   8 T   8 O     4.458997250608E-01  5.408384366735E-02 -2.499944690370E-01
   9 F   8 O    -2.499944690368E-01  4.458997250614E-01  5.408384366660E-02
  10 F   8 O     5.408384366661E-02 -2.499944690373E-01  4.458997250618E-01

 TRANSFORMATION MATRIX PRIMITIVE-CRYSTALLOGRAPHIC CELL
  1.0000  0.0000  1.0000 -1.0000  1.0000  1.0000  0.0000 -1.0000  1.0000

 *******************************************************************************
 CRYSTALLOGRAPHIC CELL (VOLUME=        302.86274032)
         A              B              C           ALPHA      BETA       GAMMA 
     5.04772924     5.04772924    13.72534007    90.000000  90.000000 120.000000

 COORDINATES IN THE CRYSTALLOGRAPHIC CELL
     ATOM              X/A                 Y/B                 Z/C    
 *******************************************************************************
   1 T  26 FE    3.333333333333E-01 -3.333333333334E-01  2.352973989311E-02
   2 T  26 FE1   3.273488932276E-13  1.636744466138E-13 -1.430962984747E-01
   3 T  26 FE1  -3.273647523163E-13 -1.636823761582E-13  1.431091065176E-01
   4 T  26 FE   -3.333333333333E-01  3.333333333334E-01 -2.351703066819E-02
   5 T   8 O    -3.625783710441E-01 -3.333412094458E-01 -8.333820565294E-02
   6 F   8 O     3.333412094456E-01 -2.923716159914E-02 -8.333820565294E-02
   7 F   8 O     2.923716159913E-02  3.625783710452E-01 -8.333820565294E-02
   8 T   8 O     3.625700251637E-01  3.333241689340E-01  8.332969989706E-02
   9 F   8 O    -3.333241689339E-01  2.924585623046E-02  8.332969989706E-02
  10 F   8 O    -2.924585623044E-02 -3.625700251648E-01  8.332969989706E-02

 T = ATOM BELONGING TO THE ASYMMETRIC UNIT
 INFORMATION **** optc001 **** GEOMETRY OUTPUT FILE
 CLASSICAL MODEL (SCHLEGEL) USED AS INITIAL HESSIAN MATRIX
 REFERENCE GEOMETRY DEFINED

 MAX GRADIENT      0.000143  THRESHOLD              0.000450 CONVERGED YES
 RMS GRADIENT      0.000072  THRESHOLD              0.000300 CONVERGED YES

 WARNINGWARNINGWARNINGWARNINGWARNINGWARNINGWARNINGWARNINGWARNINGWARNINGWARNING

 CONVERGENCE ON GRADIENTS SATISFIED AFTER THE FIRST OPTIMIZATION CYCLE
 GEOMETRY OPTIMIZATION STOPPED

 WARNINGWARNINGWARNINGWARNINGWARNINGWARNINGWARNINGWARNINGWARNINGWARNINGWARNING


 ******************************************************************
 * OPT END - CONVERGED * E(AU):  -5.505295751273E+03  POINTS    1 *
 ******************************************************************


 NEIGHBORS OF THE NON-EQUIVALENT ATOMS

 N = NUMBER OF NEIGHBORS AT DISTANCE R
    ATOM  N     R/ANG      R/AU   NEIGHBORS (ATOM LABELS AND CELL INDICES)
   1 FE   3     1.9429     3.6716   8 O    0 0 0   9 O    1 0-1  10 O    0 1-1
   1 FE   3     2.1231     4.0121   5 O    1 0-1   6 O    0 1-1   7 O    0 0 0
   1 FE   1     2.9338     5.5442   3 FE   0 0-1
   1 FE   3     2.9850     5.6408   4 FE   1 0-1   4 FE   1-1 0   4 FE   0 0 0
   1 FE   3     3.3447     6.3205   3 FE   0 0 0   3 FE   0 1-1   3 FE   1 0-1
   1 FE   3     3.3945     6.4147   8 O    0 1-1   9 O    0 0 0  10 O    1 0-1

   2 FE   3     1.9427     3.6711   5 O    0 0 0   6 O    0 0 0   7 O    0 0 0
   2 FE   3     2.1235     4.0128   8 O   -1 0 0   9 O    0-1 0  10 O    0 0-1
   2 FE   1     2.9338     5.5442   4 FE   0-1 0
   2 FE   3     2.9852     5.6413   3 FE   0-1 0   3 FE   0 0-1   3 FE  -1 0 0
   2 FE   3     3.3447     6.3205   4 FE   0 0 0   4 FE   0-1 1   4 FE   1-1 0
   2 FE   3     3.3944     6.4145   7 O    0-1 1   5 O    1 0-1   6 O   -1 1 0

   3 FE   3     1.9428     3.6713   8 O    0 0 0   9 O    0 0 0  10 O    0 0 0
   3 FE   3     2.1233     4.0124   5 O    1 0 0   6 O    0 1 0   7 O    0 0 1
   3 FE   1     2.9338     5.5442   1 FE   0 0 1
   3 FE   3     2.9852     5.6413   2 FE   0 1 0   2 FE   0 0 1   2 FE   1 0 0
   3 FE   3     3.3447     6.3205   1 FE   0 0 0   1 FE   0-1 1   1 FE  -1 0 1
   3 FE   3     3.3945     6.4147  10 O    0 1-1   8 O   -1 0 1   9 O    1-1 0

   4 FE   3     1.9430     3.6717   5 O    0 1-1   6 O   -1 1 0   7 O    0 0 0
   4 FE   3     2.1229     4.0117   8 O   -1 1 0   9 O    0 0 0  10 O    0 1-1
   4 FE   1     2.9338     5.5442   2 FE   0 1 0
   4 FE   3     2.9850     5.6408   1 FE  -1 0 1   1 FE  -1 1 0   1 FE   0 0 0
   4 FE   3     3.3447     6.3205   2 FE   0 0 0   2 FE   0 1-1   2 FE  -1 1 0
   4 FE   3     3.3947     6.4150   5 O    0 0 0   6 O    0 1-1   7 O   -1 1 0

   5 O    1     1.9427     3.6711   2 FE   0 0 0
   5 O    1     1.9430     3.6717   4 FE   0-1 1
   5 O    1     2.1231     4.0121   1 FE  -1 0 1
   5 O    1     2.1233     4.0124   3 FE  -1 0 0
   5 O    2     2.6587     5.0241   6 O   -1 1 0   7 O   -1 0 1
   5 O    1     2.7666     5.2282   8 O   -1 0 0

   8 O    1     1.9428     3.6713   3 FE   0 0 0
   8 O    1     1.9429     3.6716   1 FE   0 0 0
   8 O    1     2.1229     4.0117   4 FE   1-1 0
   8 O    1     2.1235     4.0128   2 FE   1 0 0
   8 O    2     2.6587     5.0241   9 O    1-1 0  10 O    1 0-1
   8 O    1     2.7666     5.2282   5 O    1 0 0

 MMMMMMMMMMMMMMMMMMMMMMMMMMMMMMMMMMMMMMMMMMMMMMMMMMMMMMMMMMMMMMMMMMMMMMMMMMMMMMM
     ALPHA+BETA ELECTRONS
 MULLIKEN POPULATION ANALYSIS - NO. OF ELECTRONS  152.000000

  ATOM    Z CHARGE  A.O. POPULATION

   1 FE  26 23.793  2.000  1.917  2.058  2.058  2.058  0.384  0.671  0.671
                    0.670  0.852  0.911  0.911  0.888  0.888  1.275  0.954
                    0.954  0.953  0.458  0.339  0.339  0.339  0.234  0.257
                    0.257  0.250  0.250
   2 FE  26 23.793  2.000  1.917  2.058  2.058  2.058  0.384  0.671  0.671
                    0.670  0.852  0.911  0.911  0.888  0.888  1.275  0.954
                    0.954  0.953  0.458  0.339  0.339  0.339  0.234  0.257
                    0.257  0.250  0.250
   3 FE  26 23.793  2.000  1.917  2.058  2.058  2.058  0.384  0.671  0.671
                    0.670  0.852  0.911  0.911  0.888  0.888  1.275  0.954
                    0.954  0.953  0.458  0.339  0.339  0.339  0.234  0.257
                    0.257  0.250  0.250
   4 FE  26 23.793  2.000  1.917  2.058  2.058  2.058  0.384  0.671  0.671
                    0.670  0.852  0.911  0.911  0.888  0.888  1.275  0.954
                    0.954  0.953  0.458  0.339  0.339  0.339  0.234  0.257
                    0.257  0.250  0.250
   5 O    8  9.471  1.999  0.499  0.720  0.727  0.723  0.907  0.486  0.494
                    0.488  0.589  0.616  0.607  0.616
   6 O    8  9.471  1.999  0.499  0.731  0.717  0.723  0.907  0.497  0.483
                    0.488  0.589  0.602  0.621  0.616
   7 O    8  9.471  1.999  0.499  0.720  0.727  0.723  0.907  0.486  0.494
                    0.488  0.589  0.617  0.607  0.616
   8 O    8  9.471  1.999  0.499  0.720  0.727  0.723  0.907  0.486  0.494
                    0.488  0.589  0.616  0.607  0.616
   9 O    8  9.471  1.999  0.499  0.731  0.717  0.723  0.907  0.497  0.483
                    0.488  0.589  0.602  0.621  0.616
  10 O    8  9.471  1.999  0.499  0.720  0.727  0.723  0.907  0.486  0.494
                    0.488  0.589  0.617  0.607  0.616

  ATOM    Z CHARGE  SHELL POPULATION

   1 FE  26 23.793  2.000  8.090  2.397  4.450  4.136  1.474  1.247
   2 FE  26 23.793  2.000  8.090  2.397  4.450  4.136  1.474  1.247
   3 FE  26 23.793  2.000  8.090  2.397  4.450  4.136  1.474  1.247
   4 FE  26 23.793  2.000  8.090  2.397  4.450  4.136  1.474  1.247
   5 O    8  9.471  1.999  2.669  2.375  2.429
   6 O    8  9.471  1.999  2.669  2.375  2.429
   7 O    8  9.471  1.999  2.669  2.375  2.429
   8 O    8  9.471  1.999  2.669  2.375  2.429
   9 O    8  9.471  1.999  2.669  2.375  2.429
  10 O    8  9.471  1.999  2.669  2.375  2.429

 OVERLAP POPULATION CONDENSED TO ATOMS FOR FIRST   6 NEIGHBORS

 ATOM A   1 FE   ATOM B     CELL      R(AB)/AU R(AB)/ANG    OVPOP(AB)
                  8 O    (  0  0  0)     3.672     1.943     0.020
                  5 O    (  1  0 -1)     4.012     2.123     0.014
                  3 FE   (  0  0 -1)     5.544     2.934     0.000
                  4 FE   (  1  0 -1)     5.641     2.985     0.000
                  3 FE   (  0  0  0)     6.321     3.345     0.000
                  8 O    (  0  1 -1)     6.415     3.395     0.000

 ATOM A   2 FE   ATOM B     CELL      R(AB)/AU R(AB)/ANG    OVPOP(AB)
                  5 O    (  0  0  0)     3.671     1.943     0.020
                  8 O    ( -1  0  0)     4.013     2.123     0.014
                  4 FE   (  0 -1  0)     5.544     2.934     0.000
                  3 FE   (  0 -1  0)     5.641     2.985     0.000
                  4 FE   (  0  0  0)     6.321     3.345     0.000
                  7 O    (  0 -1  1)     6.414     3.394     0.000

 ATOM A   3 FE   ATOM B     CELL      R(AB)/AU R(AB)/ANG    OVPOP(AB)
                  8 O    (  0  0  0)     3.671     1.943     0.020
                  5 O    (  1  0  0)     4.012     2.123     0.014
                  1 FE   (  0  0  1)     5.544     2.934     0.000
                  2 FE   (  0  1  0)     5.641     2.985     0.000
                  1 FE   (  0  0  0)     6.321     3.345     0.000
                 10 O    (  0  1 -1)     6.415     3.395     0.000

 ATOM A   4 FE   ATOM B     CELL      R(AB)/AU R(AB)/ANG    OVPOP(AB)
                  5 O    (  0  1 -1)     3.672     1.943     0.020
                  8 O    ( -1  1  0)     4.012     2.123     0.014
                  2 FE   (  0  1  0)     5.544     2.934     0.000
                  1 FE   ( -1  0  1)     5.641     2.985     0.000
                  2 FE   (  0  0  0)     6.321     3.345     0.000
                  5 O    (  0  0  0)     6.415     3.395     0.000

 ATOM A   5 O    ATOM B     CELL      R(AB)/AU R(AB)/ANG    OVPOP(AB)
                  2 FE   (  0  0  0)     3.671     1.943     0.020
                  4 FE   (  0 -1  1)     3.672     1.943     0.020
                  1 FE   ( -1  0  1)     4.012     2.123     0.014
                  3 FE   ( -1  0  0)     4.012     2.123     0.014
                  6 O    ( -1  1  0)     5.024     2.659    -0.034
                  8 O    ( -1  0  0)     5.228     2.767    -0.004

 ATOM A   8 O    ATOM B     CELL      R(AB)/AU R(AB)/ANG    OVPOP(AB)
                  3 FE   (  0  0  0)     3.671     1.943     0.020
                  1 FE   (  0  0  0)     3.672     1.943     0.020
                  4 FE   (  1 -1  0)     4.012     2.123     0.014
                  2 FE   (  1  0  0)     4.013     2.123     0.014
                  9 O    (  1 -1  0)     5.024     2.659    -0.034
                  5 O    (  1  0  0)     5.228     2.767    -0.004
 MMMMMMMMMMMMMMMMMMMMMMMMMMMMMMMMMMMMMMMMMMMMMMMMMMMMMMMMMMMMMMMMMMMMMMMMMMMMMMM
     ALPHA-BETA ELECTRONS
 MULLIKEN POPULATION ANALYSIS - NO. OF ELECTRONS    0.000000

  ATOM    Z CHARGE  A.O. POPULATION

   1 FE  26  4.269  0.000  0.002 -0.001 -0.001 -0.001  0.000  0.007  0.007
                    0.007  0.750  0.713  0.713  0.723  0.723  0.010  0.008
                    0.008  0.008 -0.005 -0.011 -0.011 -0.011  0.155  0.112
                    0.112  0.127  0.127
   2 FE  26 -4.269  0.000 -0.002  0.001  0.001  0.001  0.000 -0.007 -0.007
                   -0.007 -0.750 -0.713 -0.713 -0.722 -0.722 -0.010 -0.008
                   -0.008 -0.008  0.005  0.011  0.011  0.011 -0.155 -0.112
                   -0.112 -0.127 -0.127
   3 FE  26 -4.269  0.000 -0.002  0.001  0.001  0.001  0.000 -0.007 -0.007
                   -0.007 -0.750 -0.713 -0.713 -0.723 -0.723 -0.010 -0.008
                   -0.008 -0.008  0.005  0.011  0.011  0.011 -0.155 -0.112
                   -0.112 -0.127 -0.127
   4 FE  26  4.269  0.000  0.002 -0.001 -0.001 -0.001  0.000  0.007  0.007
                    0.007  0.750  0.713  0.713  0.723  0.723  0.010  0.008
                    0.008  0.008 -0.005 -0.011 -0.011 -0.011  0.155  0.112
                    0.112  0.127  0.127
   5 O    8  0.000  0.000  0.000 -0.013  0.013  0.000  0.000  0.001 -0.001
                    0.000  0.000 -0.019  0.019  0.000
   6 O    8  0.000  0.000  0.000  0.000  0.000  0.000  0.000  0.000  0.000
                    0.000  0.000  0.000  0.000  0.000
   7 O    8  0.000  0.000  0.000  0.013 -0.013  0.000  0.000 -0.001  0.001
                    0.000  0.000  0.019 -0.019  0.000
   8 O    8  0.000  0.000  0.000 -0.013  0.013  0.000  0.000  0.001 -0.001
                    0.000  0.000 -0.019  0.019  0.000
   9 O    8  0.000  0.000  0.000  0.000  0.000  0.000  0.000  0.000  0.000
                    0.000  0.000  0.000  0.000  0.000
  10 O    8  0.000  0.000  0.000  0.013 -0.013  0.000  0.000 -0.001  0.001
                    0.000  0.000  0.019 -0.019  0.000

  ATOM    Z CHARGE  SHELL POPULATION

   1 FE  26  4.269  0.000 -0.002  0.022  3.620  0.034 -0.037  0.633
   2 FE  26 -4.269  0.000  0.002 -0.022 -3.620 -0.034  0.037 -0.633
   3 FE  26 -4.269  0.000  0.002 -0.022 -3.620 -0.034  0.037 -0.633
   4 FE  26  4.269  0.000 -0.002  0.022  3.620  0.034 -0.037  0.633
   5 O    8  0.000  0.000  0.000  0.000  0.000
   6 O    8  0.000  0.000  0.000  0.000  0.000
   7 O    8  0.000  0.000  0.000  0.000  0.000
   8 O    8  0.000  0.000  0.000  0.000  0.000
   9 O    8  0.000  0.000  0.000  0.000  0.000
  10 O    8  0.000  0.000  0.000  0.000  0.000

 OVERLAP POPULATION CONDENSED TO ATOMS FOR FIRST   6 NEIGHBORS

 ATOM A   1 FE   ATOM B     CELL      R(AB)/AU R(AB)/ANG    OVPOP(AB)
                  8 O    (  0  0  0)     3.672     1.943    -0.047
                  5 O    (  1  0 -1)     4.012     2.123    -0.022
                  3 FE   (  0  0 -1)     5.544     2.934     0.000
                  4 FE   (  1  0 -1)     5.641     2.985     0.000
                  3 FE   (  0  0  0)     6.321     3.345     0.000
                  8 O    (  0  1 -1)     6.415     3.395     0.000

 ATOM A   2 FE   ATOM B     CELL      R(AB)/AU R(AB)/ANG    OVPOP(AB)
                  5 O    (  0  0  0)     3.671     1.943     0.047
                  8 O    ( -1  0  0)     4.013     2.123     0.021
                  4 FE   (  0 -1  0)     5.544     2.934     0.000
                  3 FE   (  0 -1  0)     5.641     2.985     0.000
                  4 FE   (  0  0  0)     6.321     3.345     0.000
                  7 O    (  0 -1  1)     6.414     3.394     0.000

 ATOM A   3 FE   ATOM B     CELL      R(AB)/AU R(AB)/ANG    OVPOP(AB)
                  8 O    (  0  0  0)     3.671     1.943     0.047
                  5 O    (  1  0  0)     4.012     2.123     0.022
                  1 FE   (  0  0  1)     5.544     2.934     0.000
                  2 FE   (  0  1  0)     5.641     2.985     0.000
                  1 FE   (  0  0  0)     6.321     3.345     0.000
                 10 O    (  0  1 -1)     6.415     3.395     0.000

 ATOM A   4 FE   ATOM B     CELL      R(AB)/AU R(AB)/ANG    OVPOP(AB)
                  5 O    (  0  1 -1)     3.672     1.943    -0.047
                  8 O    ( -1  1  0)     4.012     2.123    -0.022
                  2 FE   (  0  1  0)     5.544     2.934     0.000
                  1 FE   ( -1  0  1)     5.641     2.985     0.000
                  2 FE   (  0  0  0)     6.321     3.345     0.000
                  5 O    (  0  0  0)     6.415     3.395     0.000

 ATOM A   5 O    ATOM B     CELL      R(AB)/AU R(AB)/ANG    OVPOP(AB)
                  2 FE   (  0  0  0)     3.671     1.943     0.047
                  4 FE   (  0 -1  1)     3.672     1.943    -0.047
                  1 FE   ( -1  0  1)     4.012     2.123    -0.022
                  3 FE   ( -1  0  0)     4.012     2.123     0.022
                  6 O    ( -1  1  0)     5.024     2.659     0.000
                  8 O    ( -1  0  0)     5.228     2.767     0.005

 ATOM A   8 O    ATOM B     CELL      R(AB)/AU R(AB)/ANG    OVPOP(AB)
                  3 FE   (  0  0  0)     3.671     1.943     0.047
                  1 FE   (  0  0  0)     3.672     1.943    -0.047
                  4 FE   (  1 -1  0)     4.012     2.123    -0.022
                  2 FE   (  1  0  0)     4.013     2.123     0.021
                  9 O    (  1 -1  0)     5.024     2.659     0.000
                  5 O    (  1  0  0)     5.228     2.767     0.005
 EIGENVECTORS IN FORTRAN UNIT  8

 FINAL OPTIMIZED GEOMETRY - DIMENSIONALITY OF THE SYSTEM      3
 (NON PERIODIC DIRECTION: LATTICE PARAMETER FORMALLY SET TO 500)
 *******************************************************************************
 LATTICE PARAMETERS (ANGSTROMS AND DEGREES) - BOHR = 0.5291772083 ANGSTROM
 PRIMITIVE CELL - CENTRING CODE 7/0 VOLUME=   100.954247 - DENSITY 5.259 g/cm^3
         A              B              C           ALPHA      BETA       GAMMA 
     5.42446793     5.42446793     5.42446793    55.455930  55.455930  55.455930
 *******************************************************************************
 ATOMS IN THE ASYMMETRIC UNIT    6 - ATOMS IN THE UNIT CELL:   10
     ATOM              X/A                 Y/B                 Z/C    
 *******************************************************************************
   1 T  26 FE    3.568630732264E-01  3.568630732265E-01  3.568630732265E-01
   2 T  26 FE1  -1.430962984744E-01 -1.430962984749E-01 -1.430962984749E-01
   3 T  26 FE1   1.431091065173E-01  1.431091065177E-01  1.431091065177E-01
   4 T  26 FE   -3.568503640015E-01 -3.568503640015E-01 -3.568503640015E-01
   5 T   8 O    -4.459165766971E-01 -5.410104405455E-02  2.500030037928E-01
   6 F   8 O     2.500030037927E-01 -4.459165766977E-01 -5.410104405380E-02
   7 F   8 O    -5.410104405381E-02  2.500030037931E-01 -4.459165766981E-01
   8 T   8 O     4.458997250608E-01  5.408384366735E-02 -2.499944690370E-01
   9 F   8 O    -2.499944690368E-01  4.458997250614E-01  5.408384366660E-02
  10 F   8 O     5.408384366661E-02 -2.499944690373E-01  4.458997250618E-01

 TRANSFORMATION MATRIX PRIMITIVE-CRYSTALLOGRAPHIC CELL
  1.0000  0.0000  1.0000 -1.0000  1.0000  1.0000  0.0000 -1.0000  1.0000

 *******************************************************************************
 CRYSTALLOGRAPHIC CELL (VOLUME=        302.86274032)
         A              B              C           ALPHA      BETA       GAMMA 
     5.04772924     5.04772924    13.72534007    90.000000  90.000000 120.000000

 COORDINATES IN THE CRYSTALLOGRAPHIC CELL
     ATOM              X/A                 Y/B                 Z/C    
 *******************************************************************************
   1 T  26 FE    3.333333333333E-01 -3.333333333334E-01  2.352973989311E-02
   2 T  26 FE1   3.273488932276E-13  1.636744466138E-13 -1.430962984747E-01
   3 T  26 FE1  -3.273647523163E-13 -1.636823761582E-13  1.431091065176E-01
   4 T  26 FE   -3.333333333333E-01  3.333333333334E-01 -2.351703066819E-02
   5 T   8 O    -3.625783710441E-01 -3.333412094458E-01 -8.333820565294E-02
   6 F   8 O     3.333412094456E-01 -2.923716159914E-02 -8.333820565294E-02
   7 F   8 O     2.923716159913E-02  3.625783710452E-01 -8.333820565294E-02
   8 T   8 O     3.625700251637E-01  3.333241689340E-01  8.332969989706E-02
   9 F   8 O    -3.333241689339E-01  2.924585623046E-02  8.332969989706E-02
  10 F   8 O    -2.924585623044E-02 -3.625700251648E-01  8.332969989706E-02

 T = ATOM BELONGING TO THE ASYMMETRIC UNIT
 INFORMATION **** fort.34 **** GEOMETRY OUTPUT FILE

 DIRECT LATTICE VECTORS CARTESIAN COMPONENTS (ANGSTROM)
          X                    Y                    Z
   0.291430783447E+01   0.000000000000E+00   0.457511335503E+01
  -0.145715391723E+01   0.252386461909E+01   0.457511335503E+01
  -0.145715391723E+01  -0.252386461909E+01   0.457511335503E+01


 CARTESIAN COORDINATES - PRIMITIVE CELL
 *******************************************************************************
 *      ATOM          X(ANGSTROM)         Y(ANGSTROM)         Z(ANGSTROM)
 *******************************************************************************
   1    26 FE    1.457153917233E+00  2.523864619090E+00  3.229536816760E-01
   2    26 FE1   5.875047207615E-17  0.000000000000E+00 -1.964045358621E+00
   3    26 FE1   0.000000000000E+00  0.000000000000E+00  1.964221153365E+00
   4    26 FE   -1.457153917233E+00  2.523864619090E+00 -3.227792432420E-01
   5     8 O    -1.584997481014E+00 -7.675174468840E-01 -1.143845213001E+00
   6     8 O     1.457188347356E+00 -9.888893600498E-01 -1.143845213001E+00
   7     8 O     1.278091336580E-01  1.756406806934E+00 -1.143845213001E+00
   8     8 O     1.584960997317E+00  7.674524948670E-01  1.143728468609E+00
   9     8 O    -1.457113855411E+00  9.888902402498E-01  1.143728468609E+00
  10     8 O    -1.278471419063E-01 -1.756342735117E+00  1.143728468609E+00

 ****   3 SYMMOPS - TRANSLATORS IN FRACTIONARY UNITS
  V INV                   ROTATION MATRICES                       TRANSLATOR
  1  1  1.00  0.00  0.00  0.00  1.00  0.00  0.00  0.00  1.00    0.00  0.00  0.00
  2  3  0.00  0.00  1.00  1.00  0.00  0.00  0.00  1.00  0.00    0.00  0.00  0.00
  3  2  0.00  1.00  0.00  0.00  0.00  1.00  1.00  0.00  0.00    0.00  0.00  0.00
 TTTTTTTTTTTTTTTTTTTTTTTTTTTTTT END         TELAPSE     6374.75 TCPU     5731.35
 EEEEEEEEEE TERMINATION  DATE 02 04 2009 TIME 11:11:50.9
Thu Apr  2 11:11:51 BST 2009
total 97896
-rw-r--r-- 1 pc229 pc229 40079840 2009-04-02 10:39 fort.10
-rw-r--r-- 1 pc229 pc229   616360 2009-04-02 10:41 fort.11
-rw-r--r-- 1 pc229 pc229    64368 2009-04-02 09:29 fort.19
-rw-r--r-- 1 pc229 pc229  1452156 2009-04-02 11:11 fort.20
-rw-r--r-- 1 pc229 pc229  1680408 2009-04-02 09:29 fort.3
-rw-r--r-- 1 pc229 pc229     2736 2009-04-02 11:11 fort.33
-rwxr-xr-x 1 pc229 pc229     1371 2009-04-02 11:11 fort.34
-rw-r--r-- 1 pc229 pc229 10186696 2009-04-02 10:59 fort.38
-rw-r--r-- 1 pc229 pc229      247 2009-04-02 11:11 fort.7
-rw-r--r-- 1 pc229 pc229 40079840 2009-04-02 10:42 fort.8
-rw-r--r-- 1 pc229 pc229  1452156 2009-04-02 11:11 fort.9
-rw-r--r-- 1 pc229 pc229   628776 2009-04-02 10:39 fort.95
-rw-r--r-- 1 pc229 pc229  3828445 2009-04-02 11:11 fort.98
-rw-r--r-- 1 pc229 pc229     6458 2009-04-02 11:11 PPAN.DAT
-rw-r--r-- 1 pc229 pc229        0 2009-04-02 09:25 SCFOUT.LOG
wave function binary file /home/pc229/backup/Counts/CRY/Fe2O3_bulk/CRY/XL_GRID/PBE0/hem_bulk_PBE_r2.f9
Thu Apr  2 11:11:51 BST 2009
file fort.98 saved as /home/pc229/backup/Counts/CRY/Fe2O3_bulk/CRY/XL_GRID/PBE0/hem_bulk_PBE_r2.f98
file fort.20 saved as /home/pc229/backup/Counts/CRY/Fe2O3_bulk/CRY/XL_GRID/PBE0/hem_bulk_PBE_r2.f20
file fort.33 saved as /home/pc229/backup/Counts/CRY/Fe2O3_bulk/CRY/XL_GRID/PBE0/hem_bulk_PBE_r2.xyz
geometry input file fort.34 saved as /home/pc229/backup/Counts/CRY/Fe2O3_bulk/CRY/XL_GRID/PBE0/hem_bulk_PBE_r2.gui
/home/pc229/bin/CRY06/scratch/tmp13332 removed
