date gio apr 17 11:44:55 CEST 2008
hostname piero-laptop
system Linux piero-laptop 2.6.22-14-generic #1 SMP Tue Feb 12 07:42:25 UTC 2008 i686 GNU/Linux
user piero
executable in /home/piero/crystal06/bin/
temporary directory /home/piero/crystaltmp/tmp5531
output in /home/piero/InputCrystal/Formic_symm/formico_opt.out
input data /home/piero/InputCrystal/Formic_symm/formico_opt.d12
ACIDO FORMICO PBE CON SIMMETRIA
MOLECULE
8
5
  8     -5.368002932190E-01 -8.965959460250E-01  0.0
  6     -2.956158245930E-01  1.529869754610E-01  0.0
  8     9.174001325020E-01  5.188915759500E-01 0.0
  1    -1.023880510788E+00  9.696785509670E-01 0.0
  1     1.513124496098E+00 -2.376681563520E-01 0.0
OPTGEOM
END
ENDG
8 4
0 0 6 2. 1.
     5484.6717        0.0018
      825.2349        0.0140
      188.0470        0.0684
       52.9645        0.2327
       16.8976        0.4702
        5.7996        0.3585
0 1 3 6. 1.
       15.5396       -0.1108     0.0709
        3.5999       -0.1480     0.3398
        1.0138        1.1308     0.7272
0 1 1 0. 1.
        0.2742          1.            1.
0 3 1 0. 1.
        0.538           1.
1 3
0 0    3 1. 1.00
 0.1873113696D+02  0.3349460434D-01
 0.2825394365D+01  0.2347269535D+00
 0.6401216923D+00  0.8137573262D+00
0 0     1 0. 1.00
 0.1612777588D+00  0.1000000000D+01
0 2 1 0. 1.
 1.1  1.
6 4
0 0 6 2.0 1.0
3048.0    0.001826
 456.4    0.01406
 103.7    0.06876
  29.23   0.2304
   9.349  0.4685
   3.189  0.3628
0 1 2 4.0 1.0
   3.665 -0.3959 0.2365
   0.7705 1.216  0.8606
0 1 1 0.0 1.0
   0.26   1.0    1.0
0 3 1 0.0 1.0
   0.8    1.0
99 0
ENDBS
DFT
XLGRID 
EXCHANGE
PBE
CORRELAT
PBE
ENDDFT
SCFDIR
TOLINTEG
6 6 6 6 14
LEVSHIFT
3 1
FMIXING
20
MAXCYCLE
1000
END

         
 *******************************************************************************
 *                                                                             *
 *                                CRYSTAL06                                    *
 *                              develop : 1.0                                  *
 *                      cvs071115 - sequential executable                      *
 *                                                                             *
 *                                                                             *
 *                                                                             *
 *                              MAIN AUTHORS                                   *
 *                                                                             *
 *    R. DOVESI(1,10), V.R. SAUNDERS(2), C. ROETTI(1,10), R. ORLANDO (1,3),    *
 *  C.M. ZICOVICH-WILSON(1,4), F. PASCALE(5), B. CIVALLERI(1,10), K. DOLL(6),  *
 *       N.M. HARRISON(2,7), I. J. BUSH(2), Ph. D'ARCO(8), M. LLUNELL(9)       *
 *                                                                             *
 * (1) THEORETICAL CHEMISTRY GROUP - UNIVERSITA' DI TORINO - TORINO (ITALY)    *
 *      http://www.crystal.unito.it                                            *
 * (2) COMPUTATIONAL SCIENCE & ENGINEERING DEPARTMENT - CCLRC DARESBURY (UK)   *
 *     http://www.cse.clrc.ac.uk/cmg/CRYSTAL/                                  *
 * (3) UNIVERSITA' DEL PIEMONTE ORIENTALE - ALESSANDRIA (ITALY)                *
 * (4) UNIVERSIDAD AUTONOMA DEL ESTADO DE MORELOS - CUERNAVACA (MEXICO)        *
 * (5) UNIVERSITE' HENRI POINCARE' - NANCY (FRANCE)                            *
 * (6) MPI FUER FESTKOERPERFORSCHUNG - STUTTGART (GERMANY)                     *
 * (7) IMPERIAL COLLEGE - LONDON (UK)                                          *
 * (8) UNIVERSITE' PIERRE ET MARIE CURIE - PARIS (FRANCE)                      *
 * (9) UNIVERSIDAD DE BARCELONA - BARCELONA (SPAIN)                            *
 *(10) NIS - NANOSTRUCTURED INTERFACES AND SURFACES - TORINO (ITALY)           *
 *     http://www.crystal.unito.it                                             *
 *******************************************************************************
 EEEEEEEEEE STARTING  DATE 17 04 2008 TIME 11:44:55.0
 ACIDO FORMICO PBE CON SIMMETRIA                                                 

 MOLECULAR CALCULATION
 POINT  GROUP  N.  8                  :  M      OR  CS   
 CORRESPONDING SPACE GROUP            :  P 1 1 M         


 NUMBER OF IRREDUCIBLE ATOMS IN THE CONVENTIONAL CELL:    5

 INPUT COORDINATES

 ATOM AT. N.              COORDINATES
   1   8    -5.368002932190E-01 -8.965959460250E-01  0.000000000000E+00
   2   6    -2.956158245930E-01  1.529869754610E-01  0.000000000000E+00
   3   8     9.174001325020E-01  5.188915759500E-01  0.000000000000E+00
   4   1    -1.023880510788E+00  9.696785509670E-01  0.000000000000E+00
   5   1     1.513124496098E+00 -2.376681563520E-01  0.000000000000E+00

 COORDINATES OF THE EQUIVALENT ATOMS (ANGSTROMS)

 N. ATOM EQUIV AT. N.          X                  Y                  Z

   1   1   1    8 O    -5.36800293219E-01 -8.96595946025E-01  0.00000000000E+00

   2   2   1    6 C    -2.95615824593E-01  1.52986975461E-01  0.00000000000E+00

   3   3   1    8 O     9.17400132502E-01  5.18891575950E-01  0.00000000000E+00

   4   4   1    1 H    -1.02388051079E+00  9.69678550967E-01  0.00000000000E+00

   5   5   1    1 H     1.51312449610E+00 -2.37668156352E-01  0.00000000000E+00

 NUMBER OF SYMMETRY OPERATORS         :    2
 *******************************************************************************
 * GEOMETRY EDITING - INPUT COORDINATES ARE GIVEN IN ANGSTROM          
 *******************************************************************************

 GEOMETRY NOW FULLY CONSISTENT WITH THE GROUP
 *******************************************************************************
 ATOMIC POSITIONS OPTIMIZATION CONTROL

 MAXIMUM GRADIENT COMPONENT   0.00045 MAXIMUM DISPLACEMENT COMPONENT     0.00180
 R.M.S. OF GRADIENT COMPONENT 0.00030 R.M.S. OF DISPLACEMENT COMPONENTS  0.00120
 THRESHOLD ON ENERGY CHANGE 0.100E-06 EXTRAPOLATING POLYNOMIAL ORDER           2
 MAXIMUM ALLOWED NUMBER OF STEPS  100 SORTING OF ENERGY POINTS:               NO
 ANALYTICAL  GRADIENT                 HESSIAN UPDATING                      BFGS
 STEP SIZE NUMERICAL GRADIENT 0.00100
 INITIAL HESSIAN MATRIX: SCHLEGEL MODEL 2
 *******************************************************************************


 GEOMETRY FOR WAVE FUNCTION - DIMENSIONALITY OF THE SYSTEM    0
 (NON PERIODIC DIRECTION: LATTICE PARAMETER FORMALLY SET TO 500)
 *******************************************************************************
 ATOMS IN THE ASYMMETRIC UNIT    5 - ATOMS IN THE UNIT CELL:    5
     ATOM          X(ANGSTROM)         Y(ANGSTROM)         Z(ANGSTROM)
 *******************************************************************************
   1 T   8 O    -5.368002932190E-01 -8.965959460250E-01  0.000000000000E+00
   2 T   6 C    -2.956158245930E-01  1.529869754610E-01  0.000000000000E+00
   3 T   8 O     9.174001325020E-01  5.188915759500E-01  0.000000000000E+00
   4 T   1 H    -1.023880510788E+00  9.696785509670E-01  0.000000000000E+00
   5 T   1 H     1.513124496098E+00 -2.376681563520E-01  0.000000000000E+00

 T = ATOM BELONGING TO THE ASYMMETRIC UNIT

 ****   2 SYMMOPS - TRANSLATORS IN FRACTIONARY UNITS
  V INV                   ROTATION MATRICES                       TRANSLATOR
  1  1  1.00  0.00  0.00  0.00  1.00  0.00  0.00  0.00  1.00    0.00  0.00  0.00
  2  2  1.00  0.00  0.00  0.00  1.00  0.00  0.00  0.00 -1.00    0.00  0.00  0.00

 *******************************************************************************
 LOCAL ATOMIC FUNCTIONS BASIS SET
 *******************************************************************************
   ATOM  X(AU)  Y(AU)  Z(AU)    NO. TYPE  EXPONENT  S COEF   P COEF   D/F/G COEF
 *******************************************************************************
   1 O  -1.014 -1.694  0.000
                                  1 S  
                                         5.485E+03 1.800E-03 0.000E+00 0.000E+00
                                         8.252E+02 1.400E-02 0.000E+00 0.000E+00
                                         1.880E+02 6.840E-02 0.000E+00 0.000E+00
                                         5.296E+01 2.327E-01 0.000E+00 0.000E+00
                                         1.690E+01 4.702E-01 0.000E+00 0.000E+00
                                         5.800E+00 3.585E-01 0.000E+00 0.000E+00
                             2-   5 SP 
                                         1.554E+01-1.108E-01 7.090E-02 0.000E+00
                                         3.600E+00-1.480E-01 3.398E-01 0.000E+00
                                         1.014E+00 1.131E+00 7.272E-01 0.000E+00
                             6-   9 SP 
                                         2.742E-01 1.000E+00 1.000E+00 0.000E+00
                            10-  14 D  
                                         5.380E-01 0.000E+00 0.000E+00 1.000E+00
   2 C  -0.559  0.289  0.000
                                 15 S  
                                         3.048E+03 1.826E-03 0.000E+00 0.000E+00
                                         4.564E+02 1.406E-02 0.000E+00 0.000E+00
                                         1.037E+02 6.876E-02 0.000E+00 0.000E+00
                                         2.923E+01 2.304E-01 0.000E+00 0.000E+00
                                         9.349E+00 4.685E-01 0.000E+00 0.000E+00
                                         3.189E+00 3.628E-01 0.000E+00 0.000E+00
                            16-  19 SP 
                                         3.665E+00-3.959E-01 2.365E-01 0.000E+00
                                         7.705E-01 1.216E+00 8.606E-01 0.000E+00
                            20-  23 SP 
                                         2.600E-01 1.000E+00 1.000E+00 0.000E+00
                            24-  28 D  
                                         8.000E-01 0.000E+00 0.000E+00 1.000E+00
   3 O   1.734  0.981  0.000
   4 H  -1.935  1.832  0.000
                                 43 S  
                                         1.873E+01 3.349E-02 0.000E+00 0.000E+00
                                         2.825E+00 2.347E-01 0.000E+00 0.000E+00
                                         6.401E-01 8.138E-01 0.000E+00 0.000E+00
                                 44 S  
                                         1.613E-01 1.000E+00 0.000E+00 0.000E+00
                            45-  47 P  
                                         1.100E+00 0.000E+00 1.000E+00 0.000E+00
   5 H   2.859 -0.449  0.000
 INFORMATION **** READM2 **** FULL DIRECT SCF (MONO AND BIEL INT) SELECTED
 INFORMATION **** TOLINTEG **** COULOMB AND EXCHANGE SERIES TOLERANCES MODIFIED
 INFORMATION **** LEVSHIFT **** LEVEL SHIFTER ACTIVE
 INFORMATION **** MAXCYCLE **** MAX NUMBER OF SCF CYCLES SET TO      1000
 *******************************************************************************
 N. OF ATOMS PER CELL        5  COULOMB OVERLAP TOL         (T1) 10** -6
 NUMBER OF SHELLS           18  COULOMB PENETRATION TOL     (T2) 10** -6
 NUMBER OF AO               52  EXCHANGE OVERLAP TOL        (T3) 10** 20
 N. OF ELECTRONS PER CELL   24  EXCHANGE PSEUDO OVP (F(G))  (T4) 10** 20
 CORE ELECTRONS PER CELL     6  EXCHANGE PSEUDO OVP (P(G))  (T5) 10** 20
 N. OF SYMMETRY OPERATORS    2  POLE ORDER IN MONO ZONE                4
 *******************************************************************************
 TYPE OF CALCULATION :  RESTRICTED CLOSED SHELL
 KOHN-SHAM HAMILTONIAN

 (EXCHANGE)[CORRELATION] FUNCTIONAL:(PERDEW-BURKE-ERNZERHOF)[PERDEW-BURKE-ERNZERHOF]

 EIGENVALUE LEVEL SHIFTING OF  0.300 HARTREE
 LOCKING - FERMI ENERGY ALTERED BY LEVEL SHIFTER

 CAPPA: IS1=  1 IS2=  1 IS3=  1K POINTS MONKHORST NET    1 SYMMOPS K SPACE  4 SYMMOPS G SPACE  2

 *******************************************************************************
 MAX NUMBER OF SCF CYCLES    1000  CONVERGENCE ON DELTAP        10**-16
 WEIGHT OF F(I) IN F(I+1)      20% CONVERGENCE ON ENERGY        10**- 7
 EIGENVALUE LEVEL SHIFTING OF  0.300 HARTREE
 LOCKING - FERMI ENERGY ALTERED BY LEVEL SHIFTER

 DISK SPACE FOR EIGENVECTORS (FTN 10)       2704 REALS

 SYMMETRY ADAPTION OF THE BLOCH FUNCTIONS ENABLED

 DIMENSIONS  P(G)=    2678 F(G)=    1365 P(G),F(G) (IRR)    1437
 MAX G-VECTOR INDEX FOR 1- AND 2-ELECTRON INTEGRALS   1

 TTTTTTTTTTTTTTTTTTTTTTTTTTTTTT INPUT       TELAPSE        0.14 TCPU        0.01

 NEIGHBORS OF THE NON-EQUIVALENT ATOMS

 N = NUMBER OF NEIGHBORS AT DISTANCE R
    ATOM  N     R/ANG      R/AU   NEIGHBORS (ATOM LABELS AND CELL INDICES)
   1 O    1     1.0769     2.0351   2 C    0 0 0
   1 O    1     1.9288     3.6449   4 H    0 0 0
   1 O    1     2.0294     3.8349   3 O    0 0 0
   1 O    1     2.1532     4.0690   5 H    0 0 0

   2 C    1     1.0769     2.0351   1 O    0 0 0
   2 C    1     1.0942     2.0678   4 H    0 0 0
   2 C    1     1.2670     2.3943   3 O    0 0 0
   2 C    1     1.8504     3.4968   5 H    0 0 0

   3 O    1     0.9629     1.8197   5 H    0 0 0
   3 O    1     1.2670     2.3943   2 C    0 0 0
   3 O    1     1.9929     3.7661   4 H    0 0 0
   3 O    1     2.0294     3.8349   1 O    0 0 0

   4 H    1     1.0942     2.0678   2 C    0 0 0
   4 H    1     1.9288     3.6449   1 O    0 0 0
   4 H    1     1.9929     3.7661   3 O    0 0 0
   4 H    1     2.8096     5.3095   5 H    0 0 0

   5 H    1     0.9629     1.8197   3 O    0 0 0
   5 H    1     1.8504     3.4968   2 C    0 0 0
   5 H    1     2.1532     4.0690   1 O    0 0 0
   5 H    1     2.8096     5.3095   4 H    0 0 0


 SYMMETRY ALLOWED INTERNAL DEGREE(S) OF FREEDOM:   7
 TTTTTTTTTTTTTTTTTTTTTTTTTTTTTT SYMM        TELAPSE        0.16 TCPU        0.01
 TTTTTTTTTTTTTTTTTTTTTTTTTTTTTT INT_SCREEN  TELAPSE        0.16 TCPU        0.01
 *******************************************************************************
 COORDINATE OPTIMIZATION - POINT    1
 INFORMATION **** EXCBUF **** EXCH. BIPO BUFFER: WORDS USED =         0

 DFT PARAMETERS

     ATOM       ELECTRONS   NET CHARGE   R(ANGSTROM)
   1   8  O       8.0000      0.0000     0.74000000
   2   6  C       6.0000      0.0000     0.77000000
   4   1  H       1.0000      0.0000     1.11000000

 SIZE OF GRID=      89929
 TTTTTTTTTTTTTTTTTTTTTTTTTTTTTT MAKEGRID    TELAPSE        0.53 TCPU        0.37
 BECKE WEIGHT FUNCTION
 RADSAFE =     2.00
 TOLERANCES - DENSITY:10**- 6; POTENTIAL:10**- 9; GRID WGT:10**-14

 RADIAL INTEGRATION  - INTERVALS (POINTS,UPPER LIMIT):            1( 75,  4.0*R)

 ANGULAR INTEGRATION - INTERVALS (ACCURACY LEVEL [N. POINTS] UPPER LIMIT):
  1(  4[  86]   0.2)  2(  8[ 194]   0.5)  3( 12[ 350]   0.9)  4( 16[ 974]   3.5)
  5( 12[ 350]9999.0)
 TTTTTTTTTTTTTTTTTTTTTTTTTTTTTT INT_CALC    TELAPSE        0.56 TCPU        0.37

 *******************************************************************************
 ACIDO FORMICO PBE CON SIMMETRIA                                                 
 CRYSTAL - SCF - TYPE OF CALCULATION :  RESTRICTED CLOSED SHELL
 *******************************************************************************

 CAPPA: IS1=  1 IS2=  1 IS3=  1K POINTS MONKHORST NET    1 SYMMOPS K SPACE  4 SYMMOPS G SPACE  2

 TTTTTTTTTTTTTTTTTTTTTTTTTTTTTT SDIK        TELAPSE        0.57 TCPU        0.38

 AAAAAAAAAAAAAAAAAAAAAAAAAAAAAAAAAAAAAAAAAAAAAAAAAAAAAAAAAAAAAAAAAAAAAAAAAAAAAAA
         ATOMIC WAVEFUNCTION(S)


 NUCLEAR CHARGE  8.0  SYMMETRY SPECIES            S    P
 N. ELECTRONS    8.0  NUMBER OF PRIMITIVE GTOS   10    4
                      NUMBER OF CONTRACTED GTOS   3    2
                      NUMBER OF CLOSED SHELLS     2    0
                      OPEN SHELL OCCUPATION       0    4

  ZNUC SCFIT  TOTAL HF ENERGY   KINETIC ENERGY   VIRIAL THEOREM ACCURACY
   8.0  12   -7.477714701E+01  7.467356514E+01 -2.001387129E+00  3.0E-06

 NUCLEAR CHARGE  6.0  SYMMETRY SPECIES            S    P
 N. ELECTRONS    6.0  NUMBER OF PRIMITIVE GTOS    9    3
                      NUMBER OF CONTRACTED GTOS   3    2
                      NUMBER OF CLOSED SHELLS     2    0
                      OPEN SHELL OCCUPATION       0    2

  ZNUC SCFIT  TOTAL HF ENERGY   KINETIC ENERGY   VIRIAL THEOREM ACCURACY
   6.0   8   -3.761838750E+01  3.811478523E+01 -1.986976242E+00  2.1E-06

 NUCLEAR CHARGE  1.0  SYMMETRY SPECIES            S
 N. ELECTRONS    1.0  NUMBER OF PRIMITIVE GTOS    4
                      NUMBER OF CONTRACTED GTOS   2
                      NUMBER OF CLOSED SHELLS     0
                      OPEN SHELL OCCUPATION       1

  ZNUC SCFIT  TOTAL HF ENERGY   KINETIC ENERGY   VIRIAL THEOREM ACCURACY
   1.0   1   -4.982329092E-01  5.098666671E-01 -1.977182745E+00  0.0E+00

 AAAAAAAAAAAAAAAAAAAAAAAAAAAAAAAAAAAAAAAAAAAAAAAAAAAAAAAAAAAAAAAAAAAAAAAAAAAAAAA

 CHARGE NORMALIZATION FACTOR   1.00000000
 TOTAL ATOMIC CHARGES:
   8.0000000   6.0000000   8.0000000   1.0000000   1.0000000
 TTTTTTTTTTTTTTTTTTTTTTTTTTTTTT MOQGAD      TELAPSE        0.59 TCPU        0.38
 TTTTTTTTTTTTTTTTTTTTTTTTTTTTTT SHELLX      TELAPSE        0.80 TCPU        0.58
 TTTTTTTTTTTTTTTTTTTTTTTTTTTTTT MONMO3      TELAPSE        0.80 TCPU        0.58
 NUMERICALLY INTEGRATED DENSITY     23.9999909855
 TTTTTTTTTTTTTTTTTTTTTTTTTTTTTT NUMDFT      TELAPSE        1.69 TCPU        1.47
 CYC   0 ETOT(AU) -1.903015081174E+02 DETOT -1.90E+02 tst  0.00E+00 PX  1.00E+00
 TTTTTTTTTTTTTTTTTTTTTTTTTTTTTT FDIK        TELAPSE        1.69 TCPU        1.47
 INSULATING STATE - TOP OF VALENCE BANDS (A.U.) -3.3396707E-01
 TTTTTTTTTTTTTTTTTTTTTTTTTTTTTT PDIG        TELAPSE        1.69 TCPU        1.47
 CHARGE NORMALIZATION FACTOR   1.00000000
 TOTAL ATOMIC CHARGES:
   8.7938568   4.9550383   8.6779939   0.9900725   0.5830384
 TTTTTTTTTTTTTTTTTTTTTTTTTTTTTT MOQGAD      TELAPSE        1.70 TCPU        1.48
 TTTTTTTTTTTTTTTTTTTTTTTTTTTTTT SHELLX      TELAPSE        1.88 TCPU        1.66
 TTTTTTTTTTTTTTTTTTTTTTTTTTTTTT MONMO3      TELAPSE        1.88 TCPU        1.66
 NUMERICALLY INTEGRATED DENSITY     23.9999967494
 TTTTTTTTTTTTTTTTTTTTTTTTTTTTTT NUMDFT      TELAPSE        3.24 TCPU        3.00
 CYC   1 ETOT(AU) -1.893523099143E+02 DETOT  9.49E-01 tst  0.00E+00 PX  1.00E+00
 TTTTTTTTTTTTTTTTTTTTTTTTTTTTTT FDIK        TELAPSE        3.24 TCPU        3.00
 INSULATING STATE - TOP OF VALENCE BANDS (A.U.) -4.2768052E-01
 TTTTTTTTTTTTTTTTTTTTTTTTTTTTTT PDIG        TELAPSE        3.24 TCPU        3.00
 CHARGE NORMALIZATION FACTOR   1.00000000
 TOTAL ATOMIC CHARGES:
   8.2370916   5.6215198   8.4245088   1.0034403   0.7134395
 TTTTTTTTTTTTTTTTTTTTTTTTTTTTTT MOQGAD      TELAPSE        3.24 TCPU        3.01
 TTTTTTTTTTTTTTTTTTTTTTTTTTTTTT SHELLX      TELAPSE        3.42 TCPU        3.19
 TTTTTTTTTTTTTTTTTTTTTTTTTTTTTT MONMO3      TELAPSE        3.42 TCPU        3.19
 NUMERICALLY INTEGRATED DENSITY     23.9999960804
 TTTTTTTTTTTTTTTTTTTTTTTTTTTTTT NUMDFT      TELAPSE        4.78 TCPU        4.54
 CYC   2 ETOT(AU) -1.894210427314E+02 DETOT -6.87E-02 tst  2.91E-02 PX  2.57E-01
 TTTTTTTTTTTTTTTTTTTTTTTTTTTTTT FDIK        TELAPSE        4.78 TCPU        4.54
 INSULATING STATE - TOP OF VALENCE BANDS (A.U.) -5.6300358E-01
 TTTTTTTTTTTTTTTTTTTTTTTTTTTTTT PDIG        TELAPSE        4.78 TCPU        4.54
 CHARGE NORMALIZATION FACTOR   1.00000000
 TOTAL ATOMIC CHARGES:
   8.5995727   5.1528552   8.5292236   1.0294011   0.6889474
 TTTTTTTTTTTTTTTTTTTTTTTTTTTTTT MOQGAD      TELAPSE        4.79 TCPU        4.54
 TTTTTTTTTTTTTTTTTTTTTTTTTTTTTT SHELLX      TELAPSE        4.96 TCPU        4.72
 TTTTTTTTTTTTTTTTTTTTTTTTTTTTTT MONMO3      TELAPSE        4.97 TCPU        4.72
 NUMERICALLY INTEGRATED DENSITY     23.9999959233
 TTTTTTTTTTTTTTTTTTTTTTTTTTTTTT NUMDFT      TELAPSE        6.30 TCPU        6.06
 CYC   3 ETOT(AU) -1.894523724750E+02 DETOT -3.13E-02 tst  5.11E-03 PX  1.50E-01
 TTTTTTTTTTTTTTTTTTTTTTTTTTTTTT FDIK        TELAPSE        6.30 TCPU        6.06
 INSULATING STATE - TOP OF VALENCE BANDS (A.U.) -4.9235473E-01
 TTTTTTTTTTTTTTTTTTTTTTTTTTTTTT PDIG        TELAPSE        6.30 TCPU        6.06
 CHARGE NORMALIZATION FACTOR   1.00000000
 TOTAL ATOMIC CHARGES:
   8.3757455   5.4184253   8.4906141   1.0147829   0.7004322
 TTTTTTTTTTTTTTTTTTTTTTTTTTTTTT MOQGAD      TELAPSE        6.31 TCPU        6.06
 TTTTTTTTTTTTTTTTTTTTTTTTTTTTTT SHELLX      TELAPSE        6.49 TCPU        6.24
 TTTTTTTTTTTTTTTTTTTTTTTTTTTTTT MONMO3      TELAPSE        6.49 TCPU        6.24
 NUMERICALLY INTEGRATED DENSITY     23.9999958576
 TTTTTTTTTTTTTTTTTTTTTTTTTTTTTT NUMDFT      TELAPSE        7.81 TCPU        7.55
 CYC   4 ETOT(AU) -1.894613021621E+02 DETOT -8.93E-03 tst  2.89E-03 PX  9.44E-02
 TTTTTTTTTTTTTTTTTTTTTTTTTTTTTT FDIK        TELAPSE        7.81 TCPU        7.56
 INSULATING STATE - TOP OF VALENCE BANDS (A.U.) -5.3528853E-01
 TTTTTTTTTTTTTTTTTTTTTTTTTTTTTT PDIG        TELAPSE        7.81 TCPU        7.56
 CHARGE NORMALIZATION FACTOR   1.00000000
 TOTAL ATOMIC CHARGES:
   8.5172002   5.2700013   8.4864983   1.0233678   0.7029325
 TTTTTTTTTTTTTTTTTTTTTTTTTTTTTT MOQGAD      TELAPSE        7.82 TCPU        7.56
 TTTTTTTTTTTTTTTTTTTTTTTTTTTTTT SHELLX      TELAPSE        7.99 TCPU        7.74
 TTTTTTTTTTTTTTTTTTTTTTTTTTTTTT MONMO3      TELAPSE        8.00 TCPU        7.74
 NUMERICALLY INTEGRATED DENSITY     23.9999958681
 TTTTTTTTTTTTTTTTTTTTTTTTTTTTTT NUMDFT      TELAPSE        9.32 TCPU        9.07
 CYC   5 ETOT(AU) -1.894643002603E+02 DETOT -3.00E-03 tst  8.26E-04 PX  5.88E-02
 TTTTTTTTTTTTTTTTTTTTTTTTTTTTTT FDIK        TELAPSE        9.32 TCPU        9.07
 INSULATING STATE - TOP OF VALENCE BANDS (A.U.) -5.0911544E-01
 TTTTTTTTTTTTTTTTTTTTTTTTTTTTTT PDIG        TELAPSE        9.32 TCPU        9.07
 CHARGE NORMALIZATION FACTOR   1.00000000
 TOTAL ATOMIC CHARGES:
   8.4257664   5.3551780   8.5014495   1.0189008   0.6987053
 TTTTTTTTTTTTTTTTTTTTTTTTTTTTTT MOQGAD      TELAPSE        9.33 TCPU        9.07
 TTTTTTTTTTTTTTTTTTTTTTTTTTTTTT SHELLX      TELAPSE        9.50 TCPU        9.25
 TTTTTTTTTTTTTTTTTTTTTTTTTTTTTT MONMO3      TELAPSE        9.51 TCPU        9.25
 NUMERICALLY INTEGRATED DENSITY     23.9999958358
 TTTTTTTTTTTTTTTTTTTTTTTTTTTTTT NUMDFT      TELAPSE       10.83 TCPU       10.56
 CYC   6 ETOT(AU) -1.894654357711E+02 DETOT -1.14E-03 tst  2.98E-04 PX  3.91E-02
 TTTTTTTTTTTTTTTTTTTTTTTTTTTTTT FDIK        TELAPSE       10.83 TCPU       10.57
 INSULATING STATE - TOP OF VALENCE BANDS (A.U.) -5.2634602E-01
 TTTTTTTTTTTTTTTTTTTTTTTTTTTTTT PDIG        TELAPSE       10.83 TCPU       10.57
 CHARGE NORMALIZATION FACTOR   1.00000000
 TOTAL ATOMIC CHARGES:
   8.4871700   5.3021759   8.4849064   1.0219069   0.7038408
 TTTTTTTTTTTTTTTTTTTTTTTTTTTTTT MOQGAD      TELAPSE       10.84 TCPU       10.57
 TTTTTTTTTTTTTTTTTTTTTTTTTTTTTT SHELLX      TELAPSE       11.01 TCPU       10.75
 TTTTTTTTTTTTTTTTTTTTTTTTTTTTTT MONMO3      TELAPSE       11.02 TCPU       10.75
 NUMERICALLY INTEGRATED DENSITY     23.9999958560
 TTTTTTTTTTTTTTTTTTTTTTTTTTTTTT NUMDFT      TELAPSE       12.44 TCPU       12.16
 CYC   7 ETOT(AU) -1.894659434842E+02 DETOT -5.08E-04 tst  2.20E-04 PX  2.63E-02
 TTTTTTTTTTTTTTTTTTTTTTTTTTTTTT FDIK        TELAPSE       12.44 TCPU       12.16
 INSULATING STATE - TOP OF VALENCE BANDS (A.U.) -5.1509784E-01
 TTTTTTTTTTTTTTTTTTTTTTTTTTTTTT PDIG        TELAPSE       12.44 TCPU       12.16
 CHARGE NORMALIZATION FACTOR   1.00000000
 TOTAL ATOMIC CHARGES:
   8.4453873   5.3355511   8.4995919   1.0200914   0.6993783
 TTTTTTTTTTTTTTTTTTTTTTTTTTTTTT MOQGAD      TELAPSE       12.45 TCPU       12.17
 TTTTTTTTTTTTTTTTTTTTTTTTTTTTTT SHELLX      TELAPSE       12.63 TCPU       12.35
 TTTTTTTTTTTTTTTTTTTTTTTTTTTTTT MONMO3      TELAPSE       12.63 TCPU       12.35
 NUMERICALLY INTEGRATED DENSITY     23.9999958378
 TTTTTTTTTTTTTTTTTTTTTTTTTTTTTT NUMDFT      TELAPSE       13.99 TCPU       13.70
 CYC   8 ETOT(AU) -1.894661840886E+02 DETOT -2.41E-04 tst  9.61E-05 PX  1.81E-02
 TTTTTTTTTTTTTTTTTTTTTTTTTTTTTT FDIK        TELAPSE       13.99 TCPU       13.70
 INSULATING STATE - TOP OF VALENCE BANDS (A.U.) -5.2281012E-01
 TTTTTTTTTTTTTTTTTTTTTTTTTTTTTT PDIG        TELAPSE       13.99 TCPU       13.70
 CHARGE NORMALIZATION FACTOR   1.00000000
 TOTAL ATOMIC CHARGES:
   8.4746459   5.3136076   8.4874188   1.0212642   0.7030634
 TTTTTTTTTTTTTTTTTTTTTTTTTTTTTT MOQGAD      TELAPSE       14.00 TCPU       13.70
 TTTTTTTTTTTTTTTTTTTTTTTTTTTTTT SHELLX      TELAPSE       14.18 TCPU       13.88
 TTTTTTTTTTTTTTTTTTTTTTTTTTTTTT MONMO3      TELAPSE       14.18 TCPU       13.88
 NUMERICALLY INTEGRATED DENSITY     23.9999958507
 TTTTTTTTTTTTTTTTTTTTTTTTTTTTTT NUMDFT      TELAPSE       15.51 TCPU       15.20
 CYC   9 ETOT(AU) -1.894663046961E+02 DETOT -1.21E-04 tst  5.82E-05 PX  1.26E-02
 TTTTTTTTTTTTTTTTTTTTTTTTTTTTTT FDIK        TELAPSE       15.51 TCPU       15.20
 INSULATING STATE - TOP OF VALENCE BANDS (A.U.) -5.1752643E-01
 TTTTTTTTTTTTTTTTTTTTTTTTTTTTTT PDIG        TELAPSE       15.51 TCPU       15.20
 CHARGE NORMALIZATION FACTOR   1.00000000
 TOTAL ATOMIC CHARGES:
   8.4539315   5.3286739   8.4968639   1.0203162   0.7002145
 TTTTTTTTTTTTTTTTTTTTTTTTTTTTTT MOQGAD      TELAPSE       15.52 TCPU       15.21
 TTTTTTTTTTTTTTTTTTTTTTTTTTTTTT SHELLX      TELAPSE       15.70 TCPU       15.39
 TTTTTTTTTTTTTTTTTTTTTTTTTTTTTT MONMO3      TELAPSE       15.70 TCPU       15.39
 NUMERICALLY INTEGRATED DENSITY     23.9999958409
 TTTTTTTTTTTTTTTTTTTTTTTTTTTTTT NUMDFT      TELAPSE       17.04 TCPU       16.72
 CYC  10 ETOT(AU) -1.894663659510E+02 DETOT -6.13E-05 tst  2.78E-05 PX  8.92E-03
 TTTTTTTTTTTTTTTTTTTTTTTTTTTTTT FDIK        TELAPSE       17.04 TCPU       16.72
 INSULATING STATE - TOP OF VALENCE BANDS (A.U.) -5.2126090E-01
 TTTTTTTTTTTTTTTTTTTTTTTTTTTTTT PDIG        TELAPSE       17.04 TCPU       16.72
 CHARGE NORMALIZATION FACTOR   1.00000000
 TOTAL ATOMIC CHARGES:
   8.4686241   5.3183901   8.4896956   1.0209099   0.7023803
 TTTTTTTTTTTTTTTTTTTTTTTTTTTTTT MOQGAD      TELAPSE       17.05 TCPU       16.73
 TTTTTTTTTTTTTTTTTTTTTTTTTTTTTT SHELLX      TELAPSE       17.23 TCPU       16.90
 TTTTTTTTTTTTTTTTTTTTTTTTTTTTTT MONMO3      TELAPSE       17.23 TCPU       16.91
 NUMERICALLY INTEGRATED DENSITY     23.9999958481
 TTTTTTTTTTTTTTTTTTTTTTTTTTTTTT NUMDFT      TELAPSE       18.56 TCPU       18.21
 CYC  11 ETOT(AU) -1.894663982695E+02 DETOT -3.23E-05 tst  1.57E-05 PX  6.35E-03
 TTTTTTTTTTTTTTTTTTTTTTTTTTTTTT FDIK        TELAPSE       18.56 TCPU       18.21
 INSULATING STATE - TOP OF VALENCE BANDS (A.U.) -5.1862909E-01
 TTTTTTTTTTTTTTTTTTTTTTTTTTTTTT PDIG        TELAPSE       18.56 TCPU       18.21
 CHARGE NORMALIZATION FACTOR   1.00000000
 TOTAL ATOMIC CHARGES:
   8.4583090   5.3253774   8.4950456   1.0204939   0.7007742
 TTTTTTTTTTTTTTTTTTTTTTTTTTTTTT MOQGAD      TELAPSE       18.57 TCPU       18.22
 TTTTTTTTTTTTTTTTTTTTTTTTTTTTTT SHELLX      TELAPSE       18.75 TCPU       18.39
 TTTTTTTTTTTTTTTTTTTTTTTTTTTTTT MONMO3      TELAPSE       18.75 TCPU       18.40
 NUMERICALLY INTEGRATED DENSITY     23.9999958429
 TTTTTTTTTTTTTTTTTTTTTTTTTTTTTT NUMDFT      TELAPSE       20.08 TCPU       19.71
 CYC  12 ETOT(AU) -1.894664148153E+02 DETOT -1.65E-05 tst  7.83E-06 PX  4.53E-03
 TTTTTTTTTTTTTTTTTTTTTTTTTTTTTT FDIK        TELAPSE       20.08 TCPU       19.71
 INSULATING STATE - TOP OF VALENCE BANDS (A.U.) -5.2050976E-01
 TTTTTTTTTTTTTTTTTTTTTTTTTTTTTT PDIG        TELAPSE       20.08 TCPU       19.71
 CHARGE NORMALIZATION FACTOR   1.00000000
 TOTAL ATOMIC CHARGES:
   8.4657659   5.3203798   8.4911111   1.0207955   0.7019477
 TTTTTTTTTTTTTTTTTTTTTTTTTTTTTT MOQGAD      TELAPSE       20.09 TCPU       19.72
 TTTTTTTTTTTTTTTTTTTTTTTTTTTTTT SHELLX      TELAPSE       20.26 TCPU       19.89
 TTTTTTTTTTTTTTTTTTTTTTTTTTTTTT MONMO3      TELAPSE       20.27 TCPU       19.90
 NUMERICALLY INTEGRATED DENSITY     23.9999958468
 TTTTTTTTTTTTTTTTTTTTTTTTTTTTTT NUMDFT      TELAPSE       21.59 TCPU       21.21
 CYC  13 ETOT(AU) -1.894664234791E+02 DETOT -8.66E-06 tst  4.20E-06 PX  3.25E-03
 TTTTTTTTTTTTTTTTTTTTTTTTTTTTTT FDIK        TELAPSE       21.59 TCPU       21.21
 INSULATING STATE - TOP OF VALENCE BANDS (A.U.) -5.1916699E-01
 TTTTTTTTTTTTTTTTTTTTTTTTTTTTTT PDIG        TELAPSE       21.59 TCPU       21.21
 CHARGE NORMALIZATION FACTOR   1.00000000
 TOTAL ATOMIC CHARGES:
   8.4604322   5.3239191   8.4939619   1.0205881   0.7010988
 TTTTTTTTTTTTTTTTTTTTTTTTTTTTTT MOQGAD      TELAPSE       21.60 TCPU       21.22
 TTTTTTTTTTTTTTTTTTTTTTTTTTTTTT SHELLX      TELAPSE       21.78 TCPU       21.39
 TTTTTTTTTTTTTTTTTTTTTTTTTTTTTT MONMO3      TELAPSE       21.78 TCPU       21.40
 NUMERICALLY INTEGRATED DENSITY     23.9999958440
 TTTTTTTTTTTTTTTTTTTTTTTTTTTTTT NUMDFT      TELAPSE       23.11 TCPU       22.71
 CYC  14 ETOT(AU) -1.894664279637E+02 DETOT -4.48E-06 tst  2.15E-06 PX  2.34E-03
 TTTTTTTTTTTTTTTTTTTTTTTTTTTTTT FDIK        TELAPSE       23.11 TCPU       22.71
 INSULATING STATE - TOP OF VALENCE BANDS (A.U.) -5.2013165E-01
 TTTTTTTTTTTTTTTTTTTTTTTTTTTTTT PDIG        TELAPSE       23.11 TCPU       22.71
 CHARGE NORMALIZATION FACTOR   1.00000000
 TOTAL ATOMIC CHARGES:
   8.4642378   5.3214225   8.4918806   1.0207353   0.7017238
 TTTTTTTTTTTTTTTTTTTTTTTTTTTTTT MOQGAD      TELAPSE       23.12 TCPU       22.72
 TTTTTTTTTTTTTTTTTTTTTTTTTTTTTT SHELLX      TELAPSE       23.29 TCPU       22.89
 TTTTTTTTTTTTTTTTTTTTTTTTTTTTTT MONMO3      TELAPSE       23.30 TCPU       22.90
 NUMERICALLY INTEGRATED DENSITY     23.9999958460
 TTTTTTTTTTTTTTTTTTTTTTTTTTTTTT NUMDFT      TELAPSE       24.62 TCPU       24.21
 CYC  15 ETOT(AU) -1.894664303097E+02 DETOT -2.35E-06 tst  1.14E-06 PX  1.68E-03
 TTTTTTTTTTTTTTTTTTTTTTTTTTTTTT FDIK        TELAPSE       24.62 TCPU       24.21
 INSULATING STATE - TOP OF VALENCE BANDS (A.U.) -5.1943849E-01
 TTTTTTTTTTTTTTTTTTTTTTTTTTTTTT PDIG        TELAPSE       24.62 TCPU       24.21
 CHARGE NORMALIZATION FACTOR   1.00000000
 TOTAL ATOMIC CHARGES:
   8.4614736   5.3232337   8.4933881   1.0206338   0.7012708
 TTTTTTTTTTTTTTTTTTTTTTTTTTTTTT MOQGAD      TELAPSE       24.63 TCPU       24.22
 TTTTTTTTTTTTTTTTTTTTTTTTTTTTTT SHELLX      TELAPSE       24.81 TCPU       24.40
 TTTTTTTTTTTTTTTTTTTTTTTTTTTTTT MONMO3      TELAPSE       24.81 TCPU       24.40
 NUMERICALLY INTEGRATED DENSITY     23.9999958445
 TTTTTTTTTTTTTTTTTTTTTTTTTTTTTT NUMDFT      TELAPSE       26.13 TCPU       25.71
 CYC  16 ETOT(AU) -1.894664315293E+02 DETOT -1.22E-06 tst  5.88E-07 PX  1.21E-03
 TTTTTTTTTTTTTTTTTTTTTTTTTTTTTT FDIK        TELAPSE       26.13 TCPU       25.71
 INSULATING STATE - TOP OF VALENCE BANDS (A.U.) -5.1993830E-01
 TTTTTTTTTTTTTTTTTTTTTTTTTTTTTT PDIG        TELAPSE       26.13 TCPU       25.71
 CHARGE NORMALIZATION FACTOR   1.00000000
 TOTAL ATOMIC CHARGES:
   8.4634596   5.3219408   8.4922909   1.0207104   0.7015982
 TTTTTTTTTTTTTTTTTTTTTTTTTTTTTT MOQGAD      TELAPSE       26.14 TCPU       25.72
 TTTTTTTTTTTTTTTTTTTTTTTTTTTTTT SHELLX      TELAPSE       26.32 TCPU       25.90
 TTTTTTTTTTTTTTTTTTTTTTTTTTTTTT MONMO3      TELAPSE       26.32 TCPU       25.90
 NUMERICALLY INTEGRATED DENSITY     23.9999958456
 TTTTTTTTTTTTTTTTTTTTTTTTTTTTTT NUMDFT      TELAPSE       27.65 TCPU       27.21
 CYC  17 ETOT(AU) -1.894664321661E+02 DETOT -6.37E-07 tst  3.09E-07 PX  8.73E-04
 TTTTTTTTTTTTTTTTTTTTTTTTTTTTTT FDIK        TELAPSE       27.65 TCPU       27.21
 INSULATING STATE - TOP OF VALENCE BANDS (A.U.) -5.1957833E-01
 TTTTTTTTTTTTTTTTTTTTTTTTTTTTTT PDIG        TELAPSE       27.65 TCPU       27.21
 CHARGE NORMALIZATION FACTOR   1.00000000
 TOTAL ATOMIC CHARGES:
   8.4620344   5.3228658   8.4930842   1.0206564   0.7013591
 TTTTTTTTTTTTTTTTTTTTTTTTTTTTTT MOQGAD      TELAPSE       27.66 TCPU       27.22
 TTTTTTTTTTTTTTTTTTTTTTTTTTTTTT SHELLX      TELAPSE       27.83 TCPU       27.40
 TTTTTTTTTTTTTTTTTTTTTTTTTTTTTT MONMO3      TELAPSE       27.84 TCPU       27.40
 NUMERICALLY INTEGRATED DENSITY     23.9999958448
 TTTTTTTTTTTTTTTTTTTTTTTTTTTTTT NUMDFT      TELAPSE       29.16 TCPU       28.71
 CYC  18 ETOT(AU) -1.894664324983E+02 DETOT -3.32E-07 tst  1.60E-07 PX  6.30E-04
 TTTTTTTTTTTTTTTTTTTTTTTTTTTTTT FDIK        TELAPSE       29.16 TCPU       28.71
 INSULATING STATE - TOP OF VALENCE BANDS (A.U.) -5.1983814E-01
 TTTTTTTTTTTTTTTTTTTTTTTTTTTTTT PDIG        TELAPSE       29.16 TCPU       28.71
 CHARGE NORMALIZATION FACTOR   1.00000000
 TOTAL ATOMIC CHARGES:
   8.4630700   5.3221912   8.4925141   1.0206943   0.7015304
 TTTTTTTTTTTTTTTTTTTTTTTTTTTTTT MOQGAD      TELAPSE       29.17 TCPU       28.72
 TTTTTTTTTTTTTTTTTTTTTTTTTTTTTT SHELLX      TELAPSE       29.34 TCPU       28.89
 TTTTTTTTTTTTTTTTTTTTTTTTTTTTTT MONMO3      TELAPSE       29.35 TCPU       28.90
 NUMERICALLY INTEGRATED DENSITY     23.9999958454
 TTTTTTTTTTTTTTTTTTTTTTTTTTTTTT NUMDFT      TELAPSE       30.67 TCPU       30.21
 CYC  19 ETOT(AU) -1.894664326711E+02 DETOT -1.73E-07 tst  8.38E-08 PX  4.55E-04
 TTTTTTTTTTTTTTTTTTTTTTTTTTTTTT FDIK        TELAPSE       30.67 TCPU       30.21
 INSULATING STATE - TOP OF VALENCE BANDS (A.U.) -5.1965072E-01
 TTTTTTTTTTTTTTTTTTTTTTTTTTTTTT PDIG        TELAPSE       30.67 TCPU       30.21
 CHARGE NORMALIZATION FACTOR   1.00000000
 TOTAL ATOMIC CHARGES:
   8.4623178   5.3226831   8.4929285   1.0206649   0.7014057
 TTTTTTTTTTTTTTTTTTTTTTTTTTTTTT MOQGAD      TELAPSE       30.68 TCPU       30.22
 TTTTTTTTTTTTTTTTTTTTTTTTTTTTTT SHELLX      TELAPSE       30.85 TCPU       30.39
 TTTTTTTTTTTTTTTTTTTTTTTTTTTTTT MONMO3      TELAPSE       30.86 TCPU       30.40
 NUMERICALLY INTEGRATED DENSITY     23.9999958450
 TTTTTTTTTTTTTTTTTTTTTTTTTTTTTT NUMDFT      TELAPSE       32.18 TCPU       31.71
 CYC  20 ETOT(AU) -1.894664327614E+02 DETOT -9.04E-08 tst  4.36E-08 PX  3.29E-04
 TTTTTTTTTTTTTTTTTTTTTTTTTTTTTT FDIK        TELAPSE       32.18 TCPU       31.71
 INSULATING STATE - TOP OF VALENCE BANDS (A.U.) -5.1978607E-01
 TTTTTTTTTTTTTTTTTTTTTTTTTTTTTT PDIG        TELAPSE       32.18 TCPU       31.71
 CHARGE NORMALIZATION FACTOR   1.00000000
 TOTAL ATOMIC CHARGES:
   8.4628559   5.3223344   8.4926283   1.0206852   0.7014961
 TTTTTTTTTTTTTTTTTTTTTTTTTTTTTT MOQGAD      TELAPSE       32.19 TCPU       31.71
 TTTTTTTTTTTTTTTTTTTTTTTTTTTTTT SHELLX      TELAPSE       32.37 TCPU       31.89
 +++ ENERGIES IN A.U. +++
 ::: EXT EL-POLE                                   1.0179891351308E+00
 ::: EXT EL-SPHEROPOLE                             0.0000000000000E+00
 ::: BIELET ZONE E-E                               1.6635352495354E+02
 ::: TOTAL E-E                                     1.6737151408867E+02
 ::: TOTAL E-N + N-E                              -5.9871822492644E+02
 ::: TOTAL N-N                                     7.5809536194601E+01
 ::: KINETIC ENERGY                                1.8940828849300E+02
 ::: PSEUDO TOTAL   ENERGY                        -1.6612888615017E+02
 ::: VIRIAL COEFFICIENT                            1.0654767039936E+00
 TTTTTTTTTTTTTTTTTTTTTTTTTTTTTT MONMO3      TELAPSE       32.37 TCPU       31.89
 NUMERICALLY INTEGRATED DENSITY     23.9999958453
 TTTTTTTTTTTTTTTTTTTTTTTTTTTTTT NUMDFT      TELAPSE       33.70 TCPU       33.21
 CYC  21 ETOT(AU) -1.894664328083E+02 DETOT -4.69E-08 tst  2.28E-08 PX  3.29E-04

 == SCF ENDED - CONVERGENCE ON ENERGY      E(AU) -1.8946643280834E+02 CYCLES  21


 ENERGY EXPRESSION=HARTREE+FOCK EXCH*0.00000+(PBE   EXCH)*1.00000+PBE   CORR


 TOTAL ENERGY(DFT)(AU)( 21) -1.8946643280834E+02 DE-4.7E-08 tester 2.3E-08
 TTTTTTTTTTTTTTTTTTTTTTTTTTTTTT EDFT        TELAPSE       33.70 TCPU       33.21

 *******************************************************************************
 *                             FORCE CALCULATION                               *
 *******************************************************************************

 TTTTTTTTTTTTTTTTTTTTTTTTTTTTTT NUMDFG      TELAPSE       38.95 TCPU       38.39
 INFORMATION **** EXCPOG **** EXCH. BIPO BUFFER LENGTH (WORDS) =         0
 INFORMATION **** GENPOG **** BIPO BUFFER LENGTH (WORDS) =     16800
 TTTTTTTTTTTTTTTTTTTTTTTTTTTTTT SHELXG      TELAPSE       39.83 TCPU       39.22

 CARTESIAN FORCES (ANALYTICAL)
   ATOM                     X                   Y                   Z
   1   8            -1.228272146998E-01 -3.802998626590E-01  0.000000000000E+00
   2   6             2.357072979182E-02  2.806160059011E-01  0.000000000000E+00
   3   8             1.000168933850E-01  9.427908134709E-02  0.000000000000E+00
   4   1            -3.050957258370E-03  2.118934655562E-02  0.000000000000E+00
   5   1             2.290548782873E-03 -1.578457114458E-02  0.000000000000E+00

 RESULTANT FORCE     1.502353796923E-12  1.796340853844E-13  0.000000000000E+00

 SYMMETRY ALLOWED FORCES (ANALYTICAL) (DIRECTION, FORCE)

    1 -1.5264019E-01    2 -4.2602732E-01    3 -7.1650621E-04    4  2.0211752E-01
    5  8.1747635E-02    6  7.7926789E-02    7 -1.4645215E-02
 TTTTTTTTTTTTTTTTTTTTTTTTTTTTTT TOTGRA      TELAPSE       39.89 TCPU       39.25
 INFORMATION **** opta001 **** GEOMETRY OUTPUT FILE
 CLASSICAL MODEL (SCHLEGEL) USED AS INITIAL HESSIAN MATRIX
 REFERENCE GEOMETRY DEFINED

 MAX GRADIENT      0.426027  THRESHOLD              0.000450 CONVERGED NO
 RMS GRADIENT      0.192213  THRESHOLD              0.000300 CONVERGED NO

 GRADIENT NORM     0.508547  GRADIENT THRESHOLD     0.500000

 PREDICTED ENERGY CHANGE    -0.625E-04

 INITIAL DISPLACEMENTS
 -0.000183 -0.000112 -0.000050 -0.000069 -0.000002  0.000010  0.000003
 TTTTTTTTTTTTTTTTTTTTTTTTTTTTTT OPTI        TELAPSE       39.89 TCPU       39.25

 OPTOPTOPTOPTOPTOPTOPTOPTOPTOPTOPTOPTOPTOPTOPTOPTOPTOPTOPTOPTOPTOPTOPTOPTOPTOPT

 STARTING GEOMETRY OPTIMIZATION - INFORMATION ON SCF MOVED TO SCFOUT.LOG
 GEOMETRY OPTIMIZATION INFORMATION STORED IN OPTINFO.DAT

 OPTOPTOPTOPTOPTOPTOPTOPTOPTOPTOPTOPTOPTOPTOPTOPTOPTOPTOPTOPTOPTOPTOPTOPTOPTOPT
 *******************************************************************************
 COORDINATE OPTIMIZATION - POINT    2
 *******************************************************************************
 ATOMS IN THE ASYMMETRIC UNIT    5 - ATOMS IN THE UNIT CELL:    5
     ATOM          X(ANGSTROM)         Y(ANGSTROM)         Z(ANGSTROM)
 *******************************************************************************
   1 T   8 O    -5.368783860338E-01 -8.966583735445E-01  0.000000000000E+00
   2 T   6 C    -2.956173474992E-01  1.529659946877E-01  0.000000000000E+00
   3 T   8 O     9.174252111214E-01  5.189262519167E-01  0.000000000000E+00
   4 T   1 H    -1.023855062348E+00  9.696961709614E-01  0.000000000000E+00
   5 T   1 H     1.513153584760E+00 -2.376370440202E-01  0.000000000000E+00

 T = ATOM BELONGING TO THE ASYMMETRIC UNIT

 TOTAL ENERGY(DFT)(AU)(  3) -1.8946649521053E+02     DE (AU)   -6.240E-05

 SYMMETRY ALLOWED FORCES  (COORDINATE, FORCE)

    1 -1.5256833E-01    2 -4.2577505E-01    3 -6.9141491E-04    4  2.0182583E-01
    5  8.1748883E-02    6  7.7942166E-02    7 -1.4627395E-02

 GRADIENT NORM     0.508200  GRADIENT THRESHOLD     0.500000

 PREDICTED ENERGY CHANGE    -0.383E+00
 SCSCSCSCSCSCSCSCSCSCSCSCSCSCSCSCSCSCSCSCSCSCSCSCSCSCSCSCSCSCSCSCSCSCSCSCSCSCSC
 DISPLACEMENT SCALED BY  0.2613
 NO CONVERGENCE TESTS PERFORMED
           GRADIENT INFORMATIONS AT   --    PREDICTED POINT WRT CURR.POINT
   I  PREV.GRAD   CURR.GRAD   PRED.POINT  OLD.DISP NEW.DISP
    1    0.1526      0.1526      0.2005     -1.6476     -0.4306
    2    0.4260      0.4258      0.5941     -1.9133     -0.5000
    3    0.0007      0.0007      0.0174     -0.0952     -0.0249
    4   -0.2021     -0.2018     -0.3964     -1.7404     -0.4548
    5   -0.0817     -0.0817     -0.0809      0.0855      0.0223
    6   -0.0779     -0.0779     -0.0677      0.7827      0.2045
    7    0.0146      0.0146      0.0265      1.1891      0.3107
 TTTTTTTTTTTTTTTTTTTTTTTTTTTTTT OPTI        TELAPSE       52.33 TCPU       51.66
 *******************************************************************************
 COORDINATE OPTIMIZATION - POINT    3
 *******************************************************************************
 ATOMS IN THE ASYMMETRIC UNIT    5 - ATOMS IN THE UNIT CELL:    5
     ATOM          X(ANGSTROM)         Y(ANGSTROM)         Z(ANGSTROM)
 *******************************************************************************
   1 T   8 O    -7.202197162763E-01 -1.149315303780E+00  0.000000000000E+00
   2 T   6 C    -2.601709442688E-01  1.451680718383E-02  0.000000000000E+00
   3 T   8 O     9.794253866310E-01  7.211160499165E-01  0.000000000000E+00
   4 T   1 H    -8.491749395805E-01  1.070379700869E+00  0.000000000000E+00
   5 T   1 H     1.424368213495E+00 -1.494042541881E-01  0.000000000000E+00

 T = ATOM BELONGING TO THE ASYMMETRIC UNIT

 TOTAL ENERGY(DFT)(AU)(130) -1.8948285100774E+02     DE (AU)   -1.636E-02

 SYMMETRY ALLOWED FORCES  (COORDINATE, FORCE)

    1  6.6497867E-02    2  6.2727858E-02    3 -6.7690055E-02    4  1.0091875E-01
    5 -2.3916691E-02    6 -5.5140926E-02    7 -2.3118049E-02

 GRADIENT NORM     0.165137  GRADIENT THRESHOLD     0.500000

 PREDICTED ENERGY CHANGE    -0.278E-01

 MAX GRADIENT      0.100919  THRESHOLD              0.000450 CONVERGED NO
 RMS GRADIENT      0.062416  THRESHOLD              0.000300 CONVERGED NO
 MAX DISPLAC.      0.247756  THRESHOLD              0.001800 CONVERGED NO
 RMS DISPLAC.      0.162873  THRESHOLD              0.001200 CONVERGED NO
 TTTTTTTTTTTTTTTTTTTTTTTTTTTTTT OPTI        TELAPSE      274.43 TCPU      264.32
 *******************************************************************************
 COORDINATE OPTIMIZATION - POINT    4
 *******************************************************************************
 ATOMS IN THE ASYMMETRIC UNIT    5 - ATOMS IN THE UNIT CELL:    5
     ATOM          X(ANGSTROM)         Y(ANGSTROM)         Z(ANGSTROM)
 *******************************************************************************
   1 T   8 O    -6.147232494104E-01 -1.053728167071E+00  0.000000000000E+00
   2 T   6 C    -2.879900099824E-01  8.948380266650E-02  0.000000000000E+00
   3 T   8 O     9.775413391312E-01  6.409138474021E-01  0.000000000000E+00
   4 T   1 H    -9.619348569185E-01  1.044437324564E+00  0.000000000000E+00
   5 T   1 H     1.461334777180E+00 -2.138138075600E-01  0.000000000000E+00

 T = ATOM BELONGING TO THE ASYMMETRIC UNIT

 TOTAL ENERGY(DFT)(AU)( 35) -1.8951818948016E+02     DE (AU)   -3.534E-02

 SYMMETRY ALLOWED FORCES  (COORDINATE, FORCE)

    1 -6.8265724E-04    2 -4.0190868E-02    3 -1.4218938E-02    4  9.6135754E-02
    5 -1.7194300E-02    6 -2.0429295E-02    7 -1.6861515E-03

 GRADIENT NORM     0.108517  GRADIENT THRESHOLD     0.500000

 PREDICTED ENERGY CHANGE    -0.343E-02

 MAX GRADIENT      0.096136  THRESHOLD              0.000450 CONVERGED NO
 RMS GRADIENT      0.041015  THRESHOLD              0.000300 CONVERGED NO
 MAX DISPLAC.      0.081845  THRESHOLD              0.001800 CONVERGED NO
 RMS DISPLAC.      0.050863  THRESHOLD              0.001200 CONVERGED NO
 TTTTTTTTTTTTTTTTTTTTTTTTTTTTTT OPTI        TELAPSE      340.70 TCPU      326.59
 *******************************************************************************
 COORDINATE OPTIMIZATION - POINT    5
 *******************************************************************************
 ATOMS IN THE ASYMMETRIC UNIT    5 - ATOMS IN THE UNIT CELL:    5
     ATOM          X(ANGSTROM)         Y(ANGSTROM)         Z(ANGSTROM)
 *******************************************************************************
   1 T   8 O    -5.943959626666E-01 -1.022275145882E+00  0.000000000000E+00
   2 T   6 C    -3.004113283994E-01  1.170695448847E-01  0.000000000000E+00
   3 T   8 O     9.651559490478E-01  6.060658183815E-01  0.000000000000E+00
   4 T   1 H    -9.826044547862E-01  1.028260916635E+00  0.000000000000E+00
   5 T   1 H     1.486483796804E+00 -2.218281340178E-01  0.000000000000E+00

 T = ATOM BELONGING TO THE ASYMMETRIC UNIT

 TOTAL ENERGY(DFT)(AU)( 26) -1.8952196536260E+02     DE (AU)   -3.776E-03

 SYMMETRY ALLOWED FORCES  (COORDINATE, FORCE)

    1 -2.3398548E-02    2 -7.2270015E-02    3 -3.7372167E-04    4  7.5380350E-02
    5 -2.0567980E-03    6  1.9852767E-03    7 -2.5552118E-03

 GRADIENT NORM     0.107086  GRADIENT THRESHOLD     0.500000

 PREDICTED ENERGY CHANGE    -0.835E-03

 MAX GRADIENT      0.075380  THRESHOLD              0.000450 CONVERGED NO
 RMS GRADIENT      0.040475  THRESHOLD              0.000300 CONVERGED NO
 MAX DISPLAC.      0.023341  THRESHOLD              0.001800 CONVERGED NO
 RMS DISPLAC.      0.011786  THRESHOLD              0.001200 CONVERGED NO
 TTTTTTTTTTTTTTTTTTTTTTTTTTTTTT OPTI        TELAPSE      391.40 TCPU      375.05
 *******************************************************************************
 COORDINATE OPTIMIZATION - POINT    6
 *******************************************************************************
 ATOMS IN THE ASYMMETRIC UNIT    5 - ATOMS IN THE UNIT CELL:    5
     ATOM          X(ANGSTROM)         Y(ANGSTROM)         Z(ANGSTROM)
 *******************************************************************************
   1 T   8 O    -5.998555312802E-01 -1.020479201596E+00  0.000000000000E+00
   2 T   6 C    -3.023923576362E-01  1.256898896309E-01  0.000000000000E+00
   3 T   8 O     9.660596335792E-01  6.031610477555E-01  0.000000000000E+00
   4 T   1 H    -9.858189278614E-01  1.021493352819E+00  0.000000000000E+00
   5 T   1 H     1.496235183199E+00 -2.225720886078E-01  0.000000000000E+00

 T = ATOM BELONGING TO THE ASYMMETRIC UNIT

 TOTAL ENERGY(DFT)(AU)( 22) -1.8952340504552E+02     DE (AU)   -1.440E-03

 SYMMETRY ALLOWED FORCES  (COORDINATE, FORCE)

    1 -1.9725923E-02    2 -5.7089072E-02    3  1.2963983E-03    4  5.4552315E-02
    5  1.1134019E-03    6  7.1654863E-04    7 -2.3106721E-03

 GRADIENT NORM     0.081443  GRADIENT THRESHOLD     0.500000

 PREDICTED ENERGY CHANGE    -0.190E-02

 MAX GRADIENT      0.057089  THRESHOLD              0.000450 CONVERGED NO
 RMS GRADIENT      0.030783  THRESHOLD              0.000300 CONVERGED NO
 MAX DISPLAC.      0.074160  THRESHOLD              0.001800 CONVERGED NO
 RMS DISPLAC.      0.038356  THRESHOLD              0.001200 CONVERGED NO
 TTTTTTTTTTTTTTTTTTTTTTTTTTTTTT OPTI        TELAPSE      435.85 TCPU      417.46
 *******************************************************************************
 COORDINATE OPTIMIZATION - POINT    7
 *******************************************************************************
 ATOMS IN THE ASYMMETRIC UNIT    5 - ATOMS IN THE UNIT CELL:    5
     ATOM          X(ANGSTROM)         Y(ANGSTROM)         Z(ANGSTROM)
 *******************************************************************************
   1 T   8 O    -6.314333064745E-01 -1.025468862099E+00  0.000000000000E+00
   2 T   6 C    -3.063507457963E-01  1.405122252888E-01  0.000000000000E+00
   3 T   8 O     9.737346982176E-01  5.964695212933E-01  0.000000000000E+00
   4 T   1 H    -9.936526369419E-01  1.010376002666E+00  0.000000000000E+00
   5 T   1 H     1.531929990995E+00 -2.145958871484E-01  0.000000000000E+00

 T = ATOM BELONGING TO THE ASYMMETRIC UNIT

 TOTAL ENERGY(DFT)(AU)( 31) -1.8952542994003E+02     DE (AU)   -2.025E-03

 SYMMETRY ALLOWED FORCES  (COORDINATE, FORCE)

    1 -2.3516157E-03    2 -6.8513429E-03    3  3.0746827E-03    4  3.5569753E-03
    5  9.4763454E-04    6 -1.1533303E-03    7 -1.2947412E-03

 GRADIENT NORM     0.008859  GRADIENT THRESHOLD     0.500000

 PREDICTED ENERGY CHANGE    -0.271E-04

 MAX GRADIENT      0.006851  THRESHOLD              0.000450 CONVERGED NO
 RMS GRADIENT      0.003348  THRESHOLD              0.000300 CONVERGED NO
 MAX DISPLAC.      0.007148  THRESHOLD              0.001800 CONVERGED NO
 RMS DISPLAC.      0.004013  THRESHOLD              0.001200 CONVERGED NO
 TTTTTTTTTTTTTTTTTTTTTTTTTTTTTT OPTI        TELAPSE      491.60 TCPU      472.56
 *******************************************************************************
 COORDINATE OPTIMIZATION - POINT    8
 *******************************************************************************
 ATOMS IN THE ASYMMETRIC UNIT    5 - ATOMS IN THE UNIT CELL:    5
     ATOM          X(ANGSTROM)         Y(ANGSTROM)         Z(ANGSTROM)
 *******************************************************************************
   1 T   8 O    -6.338125312627E-01 -1.027509511526E+00  0.000000000000E+00
   2 T   6 C    -3.058205050227E-01  1.410389020293E-01  0.000000000000E+00
   3 T   8 O     9.749202383595E-01  5.955480501733E-01  0.000000000000E+00
   4 T   1 H    -9.961003510476E-01  1.011977469041E+00  0.000000000000E+00
   5 T   1 H     1.535041148973E+00 -2.137619097163E-01  0.000000000000E+00

 T = ATOM BELONGING TO THE ASYMMETRIC UNIT

 TOTAL ENERGY(DFT)(AU)(  8) -1.8952545962903E+02     DE (AU)   -2.969E-05

 SYMMETRY ALLOWED FORCES  (COORDINATE, FORCE)

    1 -2.7991802E-04    2 -9.3215143E-04    3  8.3022726E-04    4  3.3455368E-04
    5  2.1782706E-05    6 -1.1791521E-04    7 -6.0192280E-05

 GRADIENT NORM     0.001329  GRADIENT THRESHOLD     0.500000

 PREDICTED ENERGY CHANGE    -0.745E-06

 MAX GRADIENT      0.000932  THRESHOLD              0.000450 CONVERGED NO
 RMS GRADIENT      0.000502  THRESHOLD              0.000300 CONVERGED NO
 MAX DISPLAC.      0.001109  THRESHOLD              0.001800 CONVERGED YES
 RMS DISPLAC.      0.000737  THRESHOLD              0.001200 CONVERGED YES
 TTTTTTTTTTTTTTTTTTTTTTTTTTTTTT OPTI        TELAPSE      514.86 TCPU      493.11
 *******************************************************************************
 COORDINATE OPTIMIZATION - POINT    9
 *******************************************************************************
 ATOMS IN THE ASYMMETRIC UNIT    5 - ATOMS IN THE UNIT CELL:    5
     ATOM          X(ANGSTROM)         Y(ANGSTROM)         Z(ANGSTROM)
 *******************************************************************************
   1 T   8 O    -6.334491865736E-01 -1.027904341991E+00  0.000000000000E+00
   2 T   6 C    -3.054380241032E-01  1.411398050681E-01  0.000000000000E+00
   3 T   8 O     9.750134867701E-01  5.957342306043E-01  0.000000000000E+00
   4 T   1 H    -9.963131860298E-01  1.012289794221E+00  0.000000000000E+00
   5 T   1 H     1.534414909937E+00 -2.139664879011E-01  0.000000000000E+00

 T = ATOM BELONGING TO THE ASYMMETRIC UNIT

 TOTAL ENERGY(DFT)(AU)(  8) -1.8952546031779E+02     DE (AU)   -6.888E-07

 SYMMETRY ALLOWED FORCES  (COORDINATE, FORCE)

    1  2.8864678E-05    2 -1.0571408E-06    3  1.6678210E-04    4 -2.0193108E-05
    5 -6.6974316E-05    6  1.5214438E-05    7  5.3668655E-05

 GRADIENT NORM     0.000191  GRADIENT THRESHOLD     0.500000

 PREDICTED ENERGY CHANGE    -0.705E-07

 MAX GRADIENT      0.000167  THRESHOLD              0.000450 CONVERGED YES
 RMS GRADIENT      0.000072  THRESHOLD              0.000300 CONVERGED YES
 MAX DISPLAC.      0.000860  THRESHOLD              0.001800 CONVERGED YES
 RMS DISPLAC.      0.000497  THRESHOLD              0.001200 CONVERGED YES

 CONVERGENCE TESTS SATISFIED AFTER   9 ENERGY AND GRADIENT CALCULATIONS

 ******************************************************************
 * OPT END - CONVERGED * E(AU):  -1.895254603178E+02  POINTS    9 *
 ******************************************************************

 EIGENVECTORS IN FORTRAN UNIT  8

 NEIGHBORS OF THE NON-EQUIVALENT ATOMS

 N = NUMBER OF NEIGHBORS AT DISTANCE R
    ATOM  N     R/ANG      R/AU   NEIGHBORS (ATOM LABELS AND CELL INDICES)
   1 O    1     1.2142     2.2945   2 C    0 0 0
   1 O    1     2.0722     3.9159   4 H    0 0 0
   1 O    1     2.2855     4.3189   3 O    0 0 0
   1 O    1     2.3156     4.3759   5 H    0 0 0

   2 C    1     1.1119     2.1011   4 H    0 0 0
   2 C    1     1.2142     2.2945   1 O    0 0 0
   2 C    1     1.3588     2.5677   3 O    0 0 0
   2 C    1     1.8738     3.5410   5 H    0 0 0

   3 O    1     0.9841     1.8598   5 H    0 0 0
   3 O    1     1.3588     2.5677   2 C    0 0 0
   3 O    1     2.0149     3.8075   4 H    0 0 0
   3 O    1     2.2855     4.3189   1 O    0 0 0

   4 H    1     1.1119     2.1011   2 C    0 0 0
   4 H    1     2.0149     3.8075   3 O    0 0 0
   4 H    1     2.0722     3.9159   1 O    0 0 0
   4 H    1     2.8122     5.3142   5 H    0 0 0

   5 H    1     0.9841     1.8598   3 O    0 0 0
   5 H    1     1.8738     3.5410   2 C    0 0 0
   5 H    1     2.3156     4.3759   1 O    0 0 0
   5 H    1     2.8122     5.3142   4 H    0 0 0


 FINAL OPTIMIZED GEOMETRY - DIMENSIONALITY OF THE SYSTEM      0
 (NON PERIODIC DIRECTION: LATTICE PARAMETER FORMALLY SET TO 500)
 *******************************************************************************
 ATOMS IN THE ASYMMETRIC UNIT    5 - ATOMS IN THE UNIT CELL:    5
     ATOM          X(ANGSTROM)         Y(ANGSTROM)         Z(ANGSTROM)
 *******************************************************************************
   1 T   8 O    -6.334491865736E-01 -1.027904341991E+00  0.000000000000E+00
   2 T   6 C    -3.054380241032E-01  1.411398050681E-01  0.000000000000E+00
   3 T   8 O     9.750134867701E-01  5.957342306043E-01  0.000000000000E+00
   4 T   1 H    -9.963131860298E-01  1.012289794221E+00  0.000000000000E+00
   5 T   1 H     1.534414909937E+00 -2.139664879011E-01  0.000000000000E+00

 T = ATOM BELONGING TO THE ASYMMETRIC UNIT
 INFORMATION **** fort.34 **** GEOMETRY OUTPUT FILE

 ****   2 SYMMOPS - TRANSLATORS IN FRACTIONARY UNITS
  V INV                   ROTATION MATRICES                       TRANSLATOR
  1  1  1.00  0.00  0.00  0.00  1.00  0.00  0.00  0.00  1.00    0.00  0.00  0.00
  2  2  1.00  0.00  0.00  0.00  1.00  0.00  0.00  0.00 -1.00    0.00  0.00  0.00
 TTTTTTTTTTTTTTTTTTTTTTTTTTTTTT END         TELAPSE      535.10 TCPU      513.26
 EEEEEEEEEE TERMINATION  DATE 17 04 2008 TIME 11:53:50.1
gio apr 17 11:53:50 CEST 2008
totale 2696
-rw-r--r-- 1 piero piero       0 2008-04-17 11:44 ERROR
-rw-r--r-- 1 piero piero    6345 2008-04-17 11:53 FORCES.DAT
-rw-r--r-- 1 piero piero   13136 2008-04-17 11:53 fort.10
-rw-r--r-- 1 piero piero   11504 2008-04-17 11:53 fort.11
-rw-r--r-- 1 piero piero   15008 2008-04-17 11:53 fort.12
-rw-r--r-- 1 piero piero     880 2008-04-17 11:53 fort.19
-rw-r--r-- 1 piero piero   46408 2008-04-17 11:53 fort.20
-rw-r--r-- 1 piero piero    4011 2008-04-17 11:53 fort.33
-rw-r--r-- 1 piero piero    1061 2008-04-17 11:53 fort.34
-rw-r--r-- 1 piero piero   13136 2008-04-17 11:53 fort.8
-rw-r--r-- 1 piero piero   46408 2008-04-17 11:53 fort.9
-rw-r--r-- 1 piero piero   16120 2008-04-17 11:53 fort.95
-rw-r--r-- 1 piero piero   11504 2008-04-17 11:53 fort.96
-rw-r--r-- 1 piero piero  118917 2008-04-17 11:53 fort.98
-rw-r--r-- 1 piero piero    1061 2008-04-17 11:45 opta001
-rw-r--r-- 1 piero piero    1061 2008-04-17 11:45 opta002
-rw-r--r-- 1 piero piero    1061 2008-04-17 11:49 opta003
-rw-r--r-- 1 piero piero    1061 2008-04-17 11:50 opta004
-rw-r--r-- 1 piero piero    1061 2008-04-17 11:51 opta005
-rw-r--r-- 1 piero piero    1061 2008-04-17 11:52 opta006
-rw-r--r-- 1 piero piero    1061 2008-04-17 11:53 opta007
-rw-r--r-- 1 piero piero    1061 2008-04-17 11:53 opta008
-rw-r--r-- 1 piero piero    1061 2008-04-17 11:53 opta009
-rw-r--r-- 1 piero piero    1042 2008-04-17 11:53 OPTHESS.DAT
-rw-r--r-- 1 piero piero 2122236 2008-04-17 11:53 OPTINFO.DAT
-rw-r--r-- 1 piero piero  248170 2008-04-17 11:53 SCFOUT.LOG
wave function binary file /home/piero/InputCrystal/Formic_symm/formico_opt.f9
gio apr 17 11:53:50 CEST 2008
file fort.98 saved as /home/piero/InputCrystal/Formic_symm/formico_opt.f98
file SCFOUT.LOG saved as /home/piero/InputCrystal/Formic_symm/formico_opt.SCFLOG
file fort.20 saved as /home/piero/InputCrystal/Formic_symm/formico_opt.f20
file fort.33 saved as /home/piero/InputCrystal/Formic_symm/formico_opt.xyz
geometry input file fort.34 saved as /home/piero/InputCrystal/Formic_symm/formico_opt.gui
file optaxxx saved as /home/piero/InputCrystal/Formic_symm/formico_opt.optstory/opta001 /home/piero/InputCrystal/Formic_symm/formico_opt.optstory/opta002 /home/piero/InputCrystal/Formic_symm/formico_opt.optstory/opta003 /home/piero/InputCrystal/Formic_symm/formico_opt.optstory/opta004 /home/piero/InputCrystal/Formic_symm/formico_opt.optstory/opta005 /home/piero/InputCrystal/Formic_symm/formico_opt.optstory/opta006 /home/piero/InputCrystal/Formic_symm/formico_opt.optstory/opta007 /home/piero/InputCrystal/Formic_symm/formico_opt.optstory/opta008 /home/piero/InputCrystal/Formic_symm/formico_opt.optstory/opta009
file OPTHESS.DAT saved as /home/piero/InputCrystal/Formic_symm/formico_opt.opthess
file OPTINFO.DAT saved as /home/piero/InputCrystal/Formic_symm/formico_opt.optinfo
/home/piero/crystaltmp/tmp5531 removed
