/home/piero/bin/CRY06/Pcrystal_intel.181007
/scr/piero/CRY_data/tmp_p14770
HEMATITE PBE XLGRID 


MODISYMM
4
1 1 2 -1 3 -1 4 1
OPTGEOM
FULLOPTG
END
ENDG
26 7
0 0 8 2.0 1.0
 315379.0     0.0002275.10052905
  45690.0     0.0019
   9677.3     0.0111
   2520.88    0.0501
    759.746   0.1705
    262.964   0.36924
    102.801   0.4033
     42.9733  0.1434
0 1 6 8.0 1.0
    798.262  -0.0052  0.00850
    191.162  -0.068   0.0608
     63.6885 -0.1314  0.2114
     25.3625  0.2517  0.3944
     10.7338  0.6433  0.398
      3.764   0.2825  0.2251
0 1 4 8.0 1.0
     48.1434  0.0122 -0.0215
     17.4579 -0.2278 -0.085
      6.9972 -0.8801  0.201
      3.0791  0.9755  1.3024
0 3 4 5.0 1.0
     30.4821  0.0583
      8.692   0.2591
      3.1008  0.5162
      1.1709  0.5656
0 1 1 0.0 1.0
      1.3137  1.0     1.0
0 1 1 0.0 1.0
      0.5625  1.0     1.0
0 3 1 0.0 1.0
      0.4345  1.0   
8 4
0 0 8 2.0 1.0
 8020.0    0.00108
 1338.0    0.00804
  255.4    0.05324
   69.22   0.1681
   23.90   0.3581
    9.264  0.3855
    3.851  0.1468
    1.212  0.0728
0 1 4 8.0 1.0
   49.43  -0.00883 0.00958
   10.47  -0.0915  0.0696
    3.235 -0.0402  0.2065
    1.217  0.379   0.347
0 1 1 0.0 1.0
    0.5    1.0     1.0
0 1 1 0.0 1.0
    0.191  1.0     1.0
99 0
ENDB
DFT
SPIN
EXCHANGE
PBE
CORRELAT
PBE
XLGRID
END
SHRINK
6 6
SCFDIR
ATOMSPIN
4 
1 1 2 -1 3 -1 4 1
SPINLOCK
0  50 
LEVSHIFT
3 1
FMIXING
60
MAXCYCLE
700
PPAN
END
Mon Feb 23 10:12:18 GMT 2009
 PROCESS             0  OF             2  WORKING
 
         
 *******************************************************************************
 *                                                                             *
 *                                CRYSTAL06                                    *
 *                          Release 1.0 - v1_0_2
                            Sequential executable                              *
 *                                                                             *
 *                          Built  17 Oct 2007 18:00                           *
 *                          Xmake: Linux-pgf_p7_mpich_1.2.7.fedora5_2.6        *
 *                          Compiled on: olidata1.ch.unito.it                  *
 *                                                                             *
 *                              MAIN AUTHORS                                   *
 *                                                                             *
 *    R. DOVESI(1,10), V.R. SAUNDERS(2), C. ROETTI(1,10), R. ORLANDO (1,3),    *
 *  C.M. ZICOVICH-WILSON(1,4), F. PASCALE(5), B. CIVALLERI(1,10), K. DOLL(6),  *
 *       N.M. HARRISON(2,7), I. J. BUSH(2), Ph. D'ARCO(8), M. LLUNELL(9)       *
 *                                                                             *
 * (1) THEORETICAL CHEMISTRY GROUP - UNIVERSITA' DI TORINO - TORINO (ITALY)    *
 *      http://www.crystal.unito.it                                            *
 * (2) COMPUTATIONAL SCIENCE & ENGINEERING DEPARTMENT - CCLRC DARESBURY (UK)   *
 *     http://www.cse.clrc.ac.uk/cmg/CRYSTAL/                                  *
 * (3) UNIVERSITA' DEL PIEMONTE ORIENTALE - ALESSANDRIA (ITALY)                *
 * (4) UNIVERSIDAD AUTONOMA DEL ESTADO DE MORELOS - CUERNAVACA (MEXICO)        *
 * (5) UNIVERSITE' HENRI POINCARE' - NANCY (FRANCE)                            *
 * (6) MPI FUER FESTKOERPERFORSCHUNG - STUTTGART (GERMANY)                     *
 * (7) IMPERIAL COLLEGE - LONDON (UK)                                          *
 * (8) UNIVERSITE' PIERRE ET MARIE CURIE - PARIS (FRANCE)                      *
 * (9) UNIVERSIDAD DE BARCELONA - BARCELONA (SPAIN)                            *
 *(10) NIS - NANOSTRUCTURED INTERFACES AND SURFACES - TORINO (ITALY)           *
 *     http://www.crystal.unito.it                                             *
 *******************************************************************************
 EEEEEEEEEE STARTING  DATE 23 02 2009 TIME 10:12:20.9
 HEMATITE PBE XLGRID                                                             

 GEOMETRY INPUT FROM EXTERNAL FILE (FORTRAN UNIT 34)
 3D - CRYSTAL 

 *******************************************************************************
 LATTICE PARAMETERS  (ANGSTROMS AND DEGREES) - PRIMITIVE CELL
       A          B          C         ALPHA      BETA     GAMMA        VOLUME
    5.44534    5.44534    5.44534     55.0674   55.0674   55.0674     101.07244

 NUMBER OF IRREDUCIBLE ATOMS IN THE CELL:    6

 CARTESIAN COORDINATES (ANGSTROM) - IRREDUCIBLE ATOMS AND SYMMETRY RELATED

 AT.IRR.  AT  AT.N.          X                   Y                   Z
     1     1    26    1.453316460776E+00 -2.517217949530E+00  3.247815770310E-01
     2     2    26    0.000000000000E+00  0.000000000000E+00 -1.975683068442E+00
     3     3    26    0.000000000000E+00  0.000000000000E+00  1.976113216624E+00
     4     4    26   -1.453316460776E+00 -2.517217949530E+00 -3.243484043400E-01
     5     5     8   -1.569215147655E+00 -7.722116473570E-01 -1.151081902773E+00
     5     6     8    1.453362477537E+00 -9.728743581934E-01 -1.151081902773E+00
     5     7     8    1.158526701184E-01  1.745086005550E+00 -1.151081902773E+00
     6     8     8    1.569087857185E+00  7.719857419320E-01  1.150794129149E+00
     6     9     8   -1.453103192465E+00  9.728770741252E-01  1.150794129149E+00
     6    10     8   -1.159846647203E-01 -1.744862816057E+00  1.150794129149E+00

 NUMBER OF SYMMETRY OPERATORS         :    3
 *******************************************************************************
 LATTICE PARAMETERS (ANGSTROMS AND DEGREES) - BOHR = 0.5291772083 ANGSTROM
 PRIMITIVE CELL - CENTRING CODE 7/0 VOLUME=   101.072440 - DENSITY 5.253 g/cm^3
         A              B              C           ALPHA      BETA       GAMMA 
     5.44533688     5.44533688     5.44533688    55.067417  55.067417  55.067417
 *******************************************************************************
 ATOMS IN THE ASYMMETRIC UNIT    6 - ATOMS IN THE UNIT CELL:   10
     ATOM              X/A                 Y/B                 Z/C    
 *******************************************************************************
   1 T  26 FE    3.568442544039E-01  3.568442544031E-01  3.568442544031E-01
   2 T  26 FE   -1.430195921397E-01 -1.430195921402E-01 -1.430195921402E-01
   3 T  26 FE    1.430507305437E-01  1.430507305442E-01  1.430507305442E-01
   4 T  26 FE   -3.568128970559E-01 -3.568128970551E-01 -3.568128970551E-01
   5 T   8 O    -4.432426672372E-01 -5.675473583976E-02  2.500171301010E-01
   6 F   8 O     2.500171301009E-01 -4.432426672377E-01 -5.675473583909E-02
   7 F   8 O    -5.675473583905E-02  2.500171301013E-01 -4.432426672381E-01
   8 T   8 O     4.431926399190E-01  5.670362957970E-02 -2.499784922748E-01
   9 F   8 O    -2.499784922746E-01  4.431926399195E-01  5.670362957903E-02
  10 F   8 O     5.670362957900E-02 -2.499784922750E-01  4.431926399200E-01

 TRANSFORMATION MATRIX PRIMITIVE-CRYSTALLOGRAPHIC CELL
  1.0000  0.0000  1.0000 -1.0000  1.0000  1.0000  0.0000 -1.0000  1.0000

 *******************************************************************************
 CRYSTALLOGRAPHIC CELL (VOLUME=        303.21732051)
         A              B              C           ALPHA      BETA       GAMMA 
     5.03443590     5.03443590    13.81407288    90.000000  90.000000 120.000000

 COORDINATES IN THE CRYSTALLOGRAPHIC CELL
     ATOM              X/A                 Y/B                 Z/C    
 *******************************************************************************
   1 T  26 FE    3.333333333339E-01 -3.333333333331E-01  2.351092107004E-02
   2 T  26 FE    3.280304229069E-13  1.640152114534E-13 -1.430195921400E-01
   3 T  26 FE   -3.281018420997E-13 -1.640509210499E-13  1.430507305440E-01
   4 T  26 FE   -3.333333333339E-01  3.333333333331E-01 -2.347956372200E-02
   5 T   8 O    -3.599159095786E-01 -3.333438877597E-01 -8.332675765863E-02
   6 F   8 O     3.333438877595E-01 -2.657202181955E-02 -8.332675765863E-02
   7 F   8 O     2.657202181958E-02  3.599159095795E-01 -8.332675765863E-02
   8 T   8 O     3.598867141777E-01  3.332844180161E-01  8.330592574131E-02
   9 F   8 O    -3.332844180159E-01  2.660229616228E-02  8.330592574131E-02
  10 F   8 O    -2.660229616232E-02 -3.598867141786E-01  8.330592574131E-02

 T = ATOM BELONGING TO THE ASYMMETRIC UNIT
 *******************************************************************************
 * GEOMETRY EDITING - INPUT COORDINATES ARE GIVEN IN ANGSTROM          
 *******************************************************************************

 GEOMETRY NOW FULLY CONSISTENT WITH THE GROUP
 SSSSSSSSSSSSSSSSSSSSSSSSSSSSSSSSSSSSSSSSSSSSSSSSSSSSSSSSSSSSSSSSSSSSSSSSSSSSSS
 REDUCTION OF SYMMETRY - ATOMIC LABELS SET TO (ATOM, AT. N., LABEL)
   1( 26) 1;   2( 26)-1;   3( 26)-1;   4( 26) 1;   5(  8) 0;   6(  8) 0;
   7(  8) 0;   8(  8) 0;   9(  8) 0;  10(  8) 0;
 WARNING **** MODSYM **** GEOMETRICAL SYMMETRY NOT REDUCED
 *******************************************************************************
 COMBINED CELL/ATOM OPTIMIZATION CONTROL

 MAXIMUM GRADIENT COMPONENT   0.00045 MAXIMUM DISPLACEMENT COMPONENT     0.00030
 R.M.S. OF GRADIENT COMPONENT 0.00180 R.M.S. OF DISPLACEMENT COMPONENTS  0.00120
 THRESHOLD ON ENERGY CHANGE 0.100E-06 EXTRAPOLATING POLYNOMIAL ORDER           2
 MAXIMUM ALLOWED NUMBER OF STEPS  100 SORTING OF ENERGY POINTS:               NO
 ANALYTICAL  GRADIENT                 HESSIAN UPDATING                      BFGS
 STEP SIZE NUMERICAL GRADIENT 0.00100
 INITIAL HESSIAN MATRIX: SCHLEGEL MODEL 2
 *******************************************************************************


 GCALCO - MAX INDICES DIRECT LATTICE VECTOR  14  14  14
 NO.OF VECTORS CREATED 6999 STARS  521 RMAX   104.70104 BOHR

 GEOMETRY FOR WAVE FUNCTION - DIMENSIONALITY OF THE SYSTEM    3
 (NON PERIODIC DIRECTION: LATTICE PARAMETER FORMALLY SET TO 500)
 *******************************************************************************
 LATTICE PARAMETERS (ANGSTROMS AND DEGREES) - BOHR = 0.5291772083 ANGSTROM
 PRIMITIVE CELL - CENTRING CODE 7/0 VOLUME=   101.072440 - DENSITY 5.253 g/cm^3
         A              B              C           ALPHA      BETA       GAMMA 
     5.44533688     5.44533688     5.44533688    55.067417  55.067417  55.067417
 *******************************************************************************
 ATOMS IN THE ASYMMETRIC UNIT    6 - ATOMS IN THE UNIT CELL:   10
     ATOM              X/A                 Y/B                 Z/C    
 *******************************************************************************
   1 T  26 FE    3.568442544033E-01  3.568442544034E-01  3.568442544034E-01
   2 T  26 FE1  -1.430195921397E-01 -1.430195921402E-01 -1.430195921402E-01
   3 T  26 FE1   1.430507305437E-01  1.430507305442E-01  1.430507305442E-01
   4 T  26 FE   -3.568128970553E-01 -3.568128970554E-01 -3.568128970554E-01
   5 T   8 O    -4.432426672372E-01 -5.675473583976E-02  2.500171301010E-01
   6 F   8 O     2.500171301009E-01 -4.432426672377E-01 -5.675473583908E-02
   7 F   8 O    -5.675473583905E-02  2.500171301013E-01 -4.432426672381E-01
   8 T   8 O     4.431926399190E-01  5.670362957970E-02 -2.499784922748E-01
   9 F   8 O    -2.499784922746E-01  4.431926399195E-01  5.670362957903E-02
  10 F   8 O     5.670362957900E-02 -2.499784922750E-01  4.431926399200E-01

 TRANSFORMATION MATRIX PRIMITIVE-CRYSTALLOGRAPHIC CELL
  1.0000  0.0000  1.0000 -1.0000  1.0000  1.0000  0.0000 -1.0000  1.0000

 *******************************************************************************
 CRYSTALLOGRAPHIC CELL (VOLUME=        303.21732051)
         A              B              C           ALPHA      BETA       GAMMA 
     5.03443590     5.03443590    13.81407288    90.000000  90.000000 120.000000

 COORDINATES IN THE CRYSTALLOGRAPHIC CELL
     ATOM              X/A                 Y/B                 Z/C    
 *******************************************************************************
   1 T  26 FE    3.333333333333E-01 -3.333333333334E-01  2.351092107004E-02
   2 T  26 FE1   3.280373217113E-13  1.640186608557E-13 -1.430195921400E-01
   3 T  26 FE1  -3.280952644370E-13 -1.640476322185E-13  1.430507305440E-01
   4 T  26 FE   -3.333333333333E-01  3.333333333334E-01 -2.347956372200E-02
   5 T   8 O    -3.599159095786E-01 -3.333438877597E-01 -8.332675765863E-02
   6 F   8 O     3.333438877595E-01 -2.657202181955E-02 -8.332675765863E-02
   7 F   8 O     2.657202181958E-02  3.599159095795E-01 -8.332675765863E-02
   8 T   8 O     3.598867141777E-01  3.332844180161E-01  8.330592574131E-02
   9 F   8 O    -3.332844180159E-01  2.660229616228E-02  8.330592574131E-02
  10 F   8 O    -2.660229616232E-02 -3.598867141786E-01  8.330592574131E-02

 T = ATOM BELONGING TO THE ASYMMETRIC UNIT

 ****   3 SYMMOPS - TRANSLATORS IN FRACTIONARY UNITS
  V INV                   ROTATION MATRICES                       TRANSLATOR
  1  1  1.00  0.00  0.00  0.00  1.00  0.00  0.00  0.00  1.00    0.00  0.00  0.00
  2  3  0.00  0.00  1.00  1.00  0.00  0.00  0.00  1.00  0.00    0.00  0.00  0.00
  3  2  0.00  1.00  0.00  0.00  0.00  1.00  1.00  0.00  0.00    0.00  0.00  0.00

 DIRECT LATTICE VECTORS CARTESIAN COMPONENTS (ANGSTROM)
          X                    Y                    Z
   0.290663292155E+01   0.000000000000E+00   0.460469095849E+01
  -0.145331646077E+01   0.251721794953E+01   0.460469095849E+01
  -0.145331646077E+01  -0.251721794953E+01   0.460469095849E+01


 CARTESIAN COORDINATES - PRIMITIVE CELL
 *******************************************************************************
 *      ATOM          X(ANGSTROM)         Y(ANGSTROM)         Z(ANGSTROM)
 *******************************************************************************
   1    26 FE    1.453316460773E+00 -2.517217949530E+00  3.247815770310E-01
   2    26 FE1   5.875047207615E-17  0.000000000000E+00 -1.975683068442E+00
   3    26 FE1   0.000000000000E+00  0.000000000000E+00  1.976113216624E+00
   4    26 FE   -1.453316460773E+00 -2.517217949530E+00 -3.243484043400E-01
   5     8 O    -1.569215147655E+00 -7.722116473570E-01 -1.151081902773E+00
   6     8 O     1.453362477537E+00 -9.728743581934E-01 -1.151081902773E+00
   7     8 O     1.158526701184E-01  1.745086005550E+00 -1.151081902773E+00
   8     8 O     1.569087857185E+00  7.719857419320E-01  1.150794129149E+00
   9     8 O    -1.453103192465E+00  9.728770741252E-01  1.150794129149E+00
  10     8 O    -1.159846647203E-01 -1.744862816057E+00  1.150794129149E+00

 *******************************************************************************
 LOCAL ATOMIC FUNCTIONS BASIS SET
 *******************************************************************************
   ATOM  X(AU)  Y(AU)  Z(AU)    NO. TYPE  EXPONENT  S COEF   P COEF   D/F/G COEF
 *******************************************************************************
   1 FE  2.746 -4.757  0.614
                                  1 S  
                                         3.154E+05 2.275E-04 0.000E+00 0.000E+00
                                         4.569E+04 1.900E-03 0.000E+00 0.000E+00
                                         9.677E+03 1.110E-02 0.000E+00 0.000E+00
                                         2.521E+03 5.010E-02 0.000E+00 0.000E+00
                                         7.597E+02 1.705E-01 0.000E+00 0.000E+00
                                         2.630E+02 3.692E-01 0.000E+00 0.000E+00
                                         1.028E+02 4.033E-01 0.000E+00 0.000E+00
                                         4.297E+01 1.434E-01 0.000E+00 0.000E+00
                             2-   5 SP 
                                         7.983E+02-5.200E-03 8.500E-03 0.000E+00
                                         1.912E+02-6.800E-02 6.080E-02 0.000E+00
                                         6.369E+01-1.314E-01 2.114E-01 0.000E+00
                                         2.536E+01 2.517E-01 3.944E-01 0.000E+00
                                         1.073E+01 6.433E-01 3.980E-01 0.000E+00
                                         3.764E+00 2.825E-01 2.251E-01 0.000E+00
                             6-   9 SP 
                                         4.814E+01 1.220E-02-2.150E-02 0.000E+00
                                         1.746E+01-2.278E-01-8.500E-02 0.000E+00
                                         6.997E+00-8.801E-01 2.010E-01 0.000E+00
                                         3.079E+00 9.755E-01 1.302E+00 0.000E+00
                            10-  14 D  
                                         3.048E+01 0.000E+00 0.000E+00 5.830E-02
                                         8.692E+00 0.000E+00 0.000E+00 2.591E-01
                                         3.101E+00 0.000E+00 0.000E+00 5.162E-01
                                         1.171E+00 0.000E+00 0.000E+00 5.656E-01
                            15-  18 SP 
                                         1.314E+00 1.000E+00 1.000E+00 0.000E+00
                            19-  22 SP 
                                         5.625E-01 1.000E+00 1.000E+00 0.000E+00
                            23-  27 D  
                                         4.345E-01 0.000E+00 0.000E+00 1.000E+00
   2 FE  0.000  0.000 -3.733
   3 FE  0.000  0.000  3.734
   4 FE -2.746 -4.757 -0.613
   5 O  -2.965 -1.459 -2.175
                                109 S  
                                         8.020E+03 1.080E-03 0.000E+00 0.000E+00
                                         1.338E+03 8.040E-03 0.000E+00 0.000E+00
                                         2.554E+02 5.324E-02 0.000E+00 0.000E+00
                                         6.922E+01 1.681E-01 0.000E+00 0.000E+00
                                         2.390E+01 3.581E-01 0.000E+00 0.000E+00
                                         9.264E+00 3.855E-01 0.000E+00 0.000E+00
                                         3.851E+00 1.468E-01 0.000E+00 0.000E+00
                                         1.212E+00 7.280E-02 0.000E+00 0.000E+00
                           110- 113 SP 
                                         4.943E+01-8.830E-03 9.580E-03 0.000E+00
                                         1.047E+01-9.150E-02 6.960E-02 0.000E+00
                                         3.235E+00-4.020E-02 2.065E-01 0.000E+00
                                         1.217E+00 3.790E-01 3.470E-01 0.000E+00
                           114- 117 SP 
                                         5.000E-01 1.000E+00 1.000E+00 0.000E+00
                           118- 121 SP 
                                         1.910E-01 1.000E+00 1.000E+00 0.000E+00
   6 O   2.746 -1.838 -2.175
   7 O   0.219  3.298 -2.175
   8 O   2.965  1.459  2.175
   9 O  -2.746  1.838  2.175
  10 O  -0.219 -3.297  2.175
 INFORMATION **** READM2 **** FULL DIRECT SCF (MONO AND BIEL INT) SELECTED
 SSSSSSSSSSSSSSSSSSSSSSSSSSSSSSSSSSSSSSSSSSSSSSSSSSSSSSSSSSSSSSSSSSSSSSSSSSSSSS
 ATOMIC SPINS SET TO (ATOM, AT. N., SPIN)
   1  26 1   2  26-1   3  26-1   4  26 1   5   8 0   6   8 0   7   8 0   8   8 0
   9   8 0  10   8 0
 ALPHA-BETA ELECTRONS LOCKED TO   0 FOR  50 SCF CYCLES
 INFORMATION **** MAXCYCLE **** MAX NUMBER OF SCF CYCLES SET TO       700
 INFORMATION **** PPAN ****  MULLIKEN POPULATION ANALYSIS AT THE END OF SCF
 *******************************************************************************
 N. OF ATOMS PER CELL       10  COULOMB OVERLAP TOL         (T1) 10** -6
 NUMBER OF SHELLS           52  COULOMB PENETRATION TOL     (T2) 10** -6
 NUMBER OF AO              186  EXCHANGE OVERLAP TOL        (T3) 10** 20
 N. OF ELECTRONS PER CELL  152  EXCHANGE PSEUDO OVP (F(G))  (T4) 10** 20
 CORE ELECTRONS PER CELL    84  EXCHANGE PSEUDO OVP (P(G))  (T5) 10** 20
 N. OF SYMMETRY OPERATORS    3  POLE ORDER IN MONO ZONE                4
 *******************************************************************************
 TYPE OF CALCULATION :  UNRESTRICTED OPEN SHELL
 KOHN-SHAM HAMILTONIAN

 (EXCHANGE)[CORRELATION] FUNCTIONAL:(PERDEW-BURKE-ERNZERHOF)[PERDEW-BURKE-ERNZERHOF]


 SPIN POLARIZED DFT SELECTED
 EIGENVALUE LEVEL SHIFTING OF  0.300 HARTREE
 LOCKING - FERMI ENERGY ALTERED BY LEVEL SHIFTER

 CAPPA: IS1=  6 IS2=  6 IS3=  6K POINTS MONKHORST NET   40 SYMMOPS K SPACE  6 SYMMOPS G SPACE  3


 CAPPA1: ISJ1=  6 ISJ2=  6 ISJ3=  6K POINTS GILAT NET   40 SYMMOPS K SPACE  6 SYMMOPS G SPACE  3

 *******************************************************************************
 MAX NUMBER OF SCF CYCLES     700  CONVERGENCE ON DELTAP        10**-16
 WEIGHT OF F(I) IN F(I+1)      60% CONVERGENCE ON ENERGY        10**- 7
 EIGENVALUE LEVEL SHIFTING OF  0.300 HARTREE
 LOCKING - FERMI ENERGY ALTERED BY LEVEL SHIFTER
 SHRINK. FACT.(MONKH.)    6  6  6  NUMBER OF K POINTS IN THE IBZ     40
 SHRINKING FACTOR(GILAT NET)    6  NUMBER OF K POINTS(GILAT NET)     40
 *******************************************************************************
 *** K POINTS COORDINATES (OBLIQUE COORDINATES IN UNITS OF IS =  6)
   1-R(  0  0  0)   2-C(  1  0  0)   3-C(  2  0  0)   4-R(  3  0  0)
   5-C(  1  1  0)   6-C(  2  1  0)   7-C(  3  1  0)   8-C(  4  1  0)
   9-C(  5  1  0)  10-C(  1  2  0)  11-C(  2  2  0)  12-C(  3  2  0)
  13-C(  4  2  0)  14-C(  5  2  0)  15-C(  1  3  0)  16-C(  2  3  0)
  17-R(  3  3  0)  18-C(  1  1  1)  19-C(  2  1  1)  20-C(  3  1  1)
  21-C(  4  1  1)  22-C(  5  1  1)  23-C(  2  2  1)  24-C(  3  2  1)
  25-C(  4  2  1)  26-C(  5  2  1)  27-C(  2  3  1)  28-C(  3  3  1)
  29-C(  4  3  1)  30-C(  5  3  1)  31-C(  2  4  1)  32-C(  3  4  1)
  33-C(  4  4  1)  34-C(  5  4  1)  35-C(  2  2  2)  36-C(  3  2  2)
  37-C(  4  2  2)  38-C(  3  3  2)  39-C(  4  3  2)  40-R(  3  3  3)

 DIRECT LATTICE VECTORS COMPON. (A.U.)     RECIP. LATTICE VECTORS COMPON. (A.U.) 
        X            Y            Z              X            Y            Z
    5.4927402    0.0000000    8.7016048      0.7626048    0.0000000    0.2406907
   -2.7463701    4.7568525    8.7016048     -0.3813024    0.6604352    0.2406907
   -2.7463701   -4.7568525    8.7016048     -0.3813024   -0.6604352    0.2406907

 DISK SPACE FOR EIGENVECTORS (FTN 10)    2629296 REALS

 SYMMETRY ADAPTION OF THE BLOCH FUNCTIONS ENABLED
 TTTTTTTTTTTTTTTTTTTTTTTTTTTTTT gordsh1     TELAPSE        0.83 TCPU        0.01

 DIMENSIONS  P(G)=   74722 F(G)=   37598 P(G),F(G) (IRR)   14414
 MAX G-VECTOR INDEX FOR 1- AND 2-ELECTRON INTEGRALS  37

 TTTTTTTTTTTTTTTTTTTTTTTTTTTTTT INPUT       TELAPSE        0.84 TCPU        0.01

 NEIGHBORS OF THE NON-EQUIVALENT ATOMS

 N = NUMBER OF NEIGHBORS AT DISTANCE R
    ATOM  N     R/ANG      R/AU   NEIGHBORS (ATOM LABELS AND CELL INDICES)
   1 FE   3     1.9343     3.6553   8 O    0-1 1   9 O    1-1 0  10 O    0 0 0
   1 FE   3     2.1362     4.0368   5 O    1-1 0   6 O    0 0 0   7 O    0-1 1
   1 FE   1     2.9534     5.5810   3 FE   0-1 0
   1 FE   3     2.9782     5.6280   4 FE   1 0-1   4 FE   1-1 0   4 FE   0 0 0
   1 FE   3     3.3430     6.3173   3 FE   0 0 0   3 FE   0-1 1   3 FE   1-1 0
   1 FE   3     3.3933     6.4124   8 O    0 0 0   9 O    0-1 1  10 O    1-1 0

   2 FE   3     1.9336     3.6539   5 O    0 0 0   6 O    0 0 0   7 O    0 0 0
   2 FE   3     2.1378     4.0398   8 O   -1 0 0   9 O    0-1 0  10 O    0 0-1
   2 FE   1     2.9534     5.5810   4 FE   0 0-1
   2 FE   3     2.9791     5.6296   3 FE   0-1 0   3 FE   0 0-1   3 FE  -1 0 0
   2 FE   3     3.3430     6.3173   4 FE   0 0 0   4 FE   0 1-1   4 FE   1 0-1
   2 FE   3     3.3931     6.4121   7 O    0-1 1   5 O    1 0-1   6 O   -1 1 0

   3 FE   3     1.9337     3.6541   8 O    0 0 0   9 O    0 0 0  10 O    0 0 0
   3 FE   3     2.1373     4.0389   5 O    1 0 0   6 O    0 1 0   7 O    0 0 1
   3 FE   1     2.9534     5.5810   1 FE   0 1 0
   3 FE   3     2.9791     5.6296   2 FE   0 1 0   2 FE   0 0 1   2 FE   1 0 0
   3 FE   3     3.3430     6.3173   1 FE   0 0 0   1 FE   0 1-1   1 FE  -1 1 0
   3 FE   3     3.3935     6.4128  10 O    0 1-1   8 O   -1 0 1   9 O    1-1 0

   4 FE   3     1.9344     3.6555   5 O    0 0 0   6 O   -1 0 1   7 O    0-1 1
   4 FE   3     2.1357     4.0358   8 O   -1 0 1   9 O    0-1 1  10 O    0 0 0
   4 FE   1     2.9534     5.5810   2 FE   0 0 1
   4 FE   3     2.9782     5.6280   1 FE  -1 0 1   1 FE  -1 1 0   1 FE   0 0 0
   4 FE   3     3.3430     6.3173   2 FE   0 0 0   2 FE   0-1 1   2 FE  -1 0 1
   4 FE   3     3.3937     6.4132   5 O    0-1 1   6 O    0 0 0   7 O   -1 0 1

   5 O    1     1.9336     3.6539   2 FE   0 0 0
   5 O    1     1.9344     3.6555   4 FE   0 0 0
   5 O    1     2.1362     4.0368   1 FE  -1 1 0
   5 O    1     2.1373     4.0389   3 FE  -1 0 0
   5 O    2     2.6749     5.0548   6 O   -1 1 0   7 O   -1 0 1
   5 O    1     2.7817     5.2566   8 O   -1 0 1

   8 O    1     1.9337     3.6541   3 FE   0 0 0
   8 O    1     1.9343     3.6553   1 FE   0 1-1
   8 O    1     2.1357     4.0358   4 FE   1 0-1
   8 O    1     2.1378     4.0398   2 FE   1 0 0
   8 O    2     2.6749     5.0548   9 O    1-1 0  10 O    1 0-1
   8 O    1     2.7817     5.2566   5 O    1 0-1


 SYMMETRY ALLOWED ELASTIC DISTORTION 1
  0.5773503  0.0000000  0.0000000
  0.0000000  0.5773503  0.0000000
  0.0000000  0.0000000  0.5773503

 SYMMETRY ALLOWED ELASTIC DISTORTION 2
  0.4082483  0.0000000  0.0000000
  0.0000000  0.4082483  0.0000000
  0.0000000  0.0000000 -0.8164966

 SYMMETRY ALLOWED INTERNAL DEGREE(S) OF FREEDOM:   9
 TTTTTTTTTTTTTTTTTTTTTTTTTTTTTT SYMM        TELAPSE        0.85 TCPU        0.02
PROCESS             1  OF             2  WORKING
 TTTTTTTTTTTTTTTTTTTTTTTTTTTTTT INT_SCREEN  TELAPSE        0.85 TCPU        0.03
 *******************************************************************************
 COORDINATE AND CELL OPTIMIZATION - POINT    1
 INFORMATION **** EXCBUF **** EXCH. BIPO BUFFER: WORDS USED =         0

 DFT PARAMETERS

     ATOM       ELECTRONS   NET CHARGE   R(ANGSTROM)
   1  26  FE     23.0000      3.0000     0.64000000
   5   8  O      10.0000     -2.0000     1.40000000

 SIZE OF GRID=      68947
 TTTTTTTTTTTTTTTTTTTTTTTTTTTTTT MAKEGRID    TELAPSE      217.99 TCPU      115.17
 BECKE WEIGHT FUNCTION
 RADSAFE =     2.00
 TOLERANCES - DENSITY:10**- 6; POTENTIAL:10**- 9; GRID WGT:10**-14

 RADIAL INTEGRATION  - INTERVALS (POINTS,UPPER LIMIT):            1( 75,  4.0*R)

 ANGULAR INTEGRATION - INTERVALS (ACCURACY LEVEL [N. POINTS] UPPER LIMIT):
  1(  4[  86]   0.2)  2(  8[ 194]   0.5)  3( 12[ 350]   0.9)  4( 16[ 974]   3.5)
  5( 12[ 350]9999.0)
 TTTTTTTTTTTTTTTTTTTTTTTTTTTTTT INT_CALC    TELAPSE      218.13 TCPU      115.31

 *******************************************************************************
 HEMATITE PBE XLGRID                                                             
 CRYSTAL - SCF - TYPE OF CALCULATION :  UNRESTRICTED OPEN SHELL
 *******************************************************************************

 CAPPA: IS1=  6 IS2=  6 IS3=  6K POINTS MONKHORST NET   40 SYMMOPS K SPACE  6 SYMMOPS G SPACE  3


 CAPPA1: ISJ1=  6 ISJ2=  6 ISJ3=  6K POINTS GILAT NET   40 SYMMOPS K SPACE  6 SYMMOPS G SPACE  3

 TTTTTTTTTTTTTTTTTTTTTTTTTTTTTT SDIK        TELAPSE      219.34 TCPU      116.32

 AAAAAAAAAAAAAAAAAAAAAAAAAAAAAAAAAAAAAAAAAAAAAAAAAAAAAAAAAAAAAAAAAAAAAAAAAAAAAAA
         ATOMIC WAVEFUNCTION(S)


 NUCLEAR CHARGE 26.0  SYMMETRY SPECIES            S    P    D
 N. ELECTRONS   23.0  NUMBER OF PRIMITIVE GTOS   20   12    5
                      NUMBER OF CONTRACTED GTOS   5    4    2
                      NUMBER OF CLOSED SHELLS     3    2    0
                      OPEN SHELL OCCUPATION       0    0    5

  ZNUC SCFIT  TOTAL HF ENERGY   KINETIC ENERGY   VIRIAL THEOREM ACCURACY
  26.0  15   -1.260550909E+03  1.260303924E+03 -2.000195972E+00  2.8E-06

 NUCLEAR CHARGE  8.0  SYMMETRY SPECIES            S    P
 N. ELECTRONS   10.0  NUMBER OF PRIMITIVE GTOS   14    6
                      NUMBER OF CONTRACTED GTOS   4    3
                      NUMBER OF CLOSED SHELLS     2    1
                      OPEN SHELL OCCUPATION       0    0

  ZNUC SCFIT  TOTAL HF ENERGY   KINETIC ENERGY   VIRIAL THEOREM ACCURACY
   8.0  61   -7.433102083E+01  7.469307318E+01 -1.995152799E+00  4.6E-06

 AAAAAAAAAAAAAAAAAAAAAAAAAAAAAAAAAAAAAAAAAAAAAAAAAAAAAAAAAAAAAAAAAAAAAAAAAAAAAAA

 CHARGE NORMALIZATION FACTOR   1.00000000
 TOTAL ATOMIC CHARGES:
  23.0000000  23.0000000  23.0000000  23.0000000  10.0000000  10.0000000
  10.0000000  10.0000000  10.0000000  10.0000000
 SUMMED SPIN DENSITY           0.00000000
 TOTAL ATOMIC SPINS  :
   5.0000000  -5.0000000  -5.0000000   5.0000000   0.0000000   0.0000000
   0.0000000   0.0000000   0.0000000   0.0000000
 TTTTTTTTTTTTTTTTTTTTTTTTTTTTTT MOQGAD      TELAPSE      220.65 TCPU      116.49
 TTTTTTTTTTTTTTTTTTTTTTTTTTTTTT SHELLX      TELAPSE      237.24 TCPU      125.55
 TTTTTTTTTTTTTTTTTTTTTTTTTTTTTT MONMO3      TELAPSE      239.97 TCPU      126.87
 NUMERICALLY INTEGRATED DENSITY     76.0000231637     75.9999608035
 TTTTTTTTTTTTTTTTTTTTTTTTTTTTTT NUMDFT      TELAPSE      276.25 TCPU      143.65
 CYC   0 ETOT(AU) -5.508518223640E+03 DETOT -5.51E+03 tst  0.00E+00 PX  1.00E+00
 TTTTTTTTTTTTTTTTTTTTTTTTTTTTTT FDIK        TELAPSE      313.04 TCPU      162.12
 INSULATING STATE - TOP OF VALENCE BANDS (A.U.) -1.0000000E+00
 TTTTTTTTTTTTTTTTTTTTTTTTTTTTTT PDIG        TELAPSE      315.24 TCPU      163.22
 CHARGE NORMALIZATION FACTOR   1.00000000
 TOTAL ATOMIC CHARGES:
  24.4619234  24.4649651  24.4629237  24.4598424   9.0250554   9.0250554
   9.0250554   9.0250597   9.0250597   9.0250597
 SUMMED SPIN DENSITY           0.00000000
 TOTAL ATOMIC SPINS  :
   3.5077855  -3.5054598  -3.5071951   3.5095496  -0.0011483  -0.0011483
  -0.0011483  -0.0004117  -0.0004117  -0.0004117
 TTTTTTTTTTTTTTTTTTTTTTTTTTTTTT MOQGAD      TELAPSE      315.54 TCPU      163.37
 TTTTTTTTTTTTTTTTTTTTTTTTTTTTTT SHELLX      TELAPSE      336.01 TCPU      174.78
 TTTTTTTTTTTTTTTTTTTTTTTTTTTTTT MONMO3      TELAPSE      339.86 TCPU      176.20
 NUMERICALLY INTEGRATED DENSITY     76.0000222629     75.9999752290
 TTTTTTTTTTTTTTTTTTTTTTTTTTTTTT NUMDFT      TELAPSE      430.33 TCPU      221.75
 CYC   1 ETOT(AU) -5.504828373457E+03 DETOT  3.69E+00 tst  0.00E+00 PX  1.00E+00
 TTTTTTTTTTTTTTTTTTTTTTTTTTTTTT FDIK        TELAPSE      450.31 TCPU      231.76
 INSULATING STATE - TOP OF VALENCE BANDS (A.U.) -1.0000000E+00
 TTTTTTTTTTTTTTTTTTTTTTTTTTTTTT PDIG        TELAPSE      452.69 TCPU      232.94
 CHARGE NORMALIZATION FACTOR   1.00000000
 TOTAL ATOMIC CHARGES:
  23.9891326  23.9880712  23.9883485  23.9894463   9.3408240   9.3408240
   9.3408240   9.3408431   9.3408431   9.3408431
 SUMMED SPIN DENSITY           0.00000000
 TOTAL ATOMIC SPINS  :
   3.8828314  -3.8830131  -3.8831275   3.8829244  -0.0000505  -0.0000505
  -0.0000505   0.0001787   0.0001787   0.0001787
 TTTTTTTTTTTTTTTTTTTTTTTTTTTTTT MOQGAD      TELAPSE      453.02 TCPU      233.11
 TTTTTTTTTTTTTTTTTTTTTTTTTTTTTT SHELLX      TELAPSE      473.01 TCPU      244.40
 TTTTTTTTTTTTTTTTTTTTTTTTTTTTTT MONMO3      TELAPSE      476.49 TCPU      245.74
 NUMERICALLY INTEGRATED DENSITY     76.0000257997     75.9999759837
 TTTTTTTTTTTTTTTTTTTTTTTTTTTTTT NUMDFT      TELAPSE      574.49 TCPU      289.15
 CYC   2 ETOT(AU) -5.505233952593E+03 DETOT -4.06E-01 tst  2.55E-02 PX  1.13E-01
 TTTTTTTTTTTTTTTTTTTTTTTTTTTTTT FDIK        TELAPSE      593.83 TCPU      298.94
 INSULATING STATE - TOP OF VALENCE BANDS (A.U.) -1.0000000E+00
 TTTTTTTTTTTTTTTTTTTTTTTTTTTTTT PDIG        TELAPSE      596.08 TCPU      300.06
 CHARGE NORMALIZATION FACTOR   1.00000000
 TOTAL ATOMIC CHARGES:
  23.9396851  23.9394929  23.9397612  23.9399323   9.3735200   9.3735200
   9.3735200   9.3735228   9.3735228   9.3735228
 SUMMED SPIN DENSITY           0.00000000
 TOTAL ATOMIC SPINS  :
   3.9253795  -3.9251884  -3.9251338   3.9253240  -0.0001716  -0.0001716
  -0.0001716   0.0000445   0.0000445   0.0000445
 TTTTTTTTTTTTTTTTTTTTTTTTTTTTTT MOQGAD      TELAPSE      596.37 TCPU      300.21
 TTTTTTTTTTTTTTTTTTTTTTTTTTTTTT SHELLX      TELAPSE      615.50 TCPU      310.95
 TTTTTTTTTTTTTTTTTTTTTTTTTTTTTT MONMO3      TELAPSE      619.29 TCPU      312.36
 NUMERICALLY INTEGRATED DENSITY     76.0000262975     75.9999756773
 TTTTTTTTTTTTTTTTTTTTTTTTTTTTTT NUMDFT      TELAPSE      717.80 TCPU      358.27
 CYC   3 ETOT(AU) -5.505285300983E+03 DETOT -5.13E-02 tst  1.01E-03 PX  2.56E-02
 TTTTTTTTTTTTTTTTTTTTTTTTTTTTTT FDIK        TELAPSE      738.10 TCPU      368.40
 INSULATING STATE - TOP OF VALENCE BANDS (A.U.) -1.0000000E+00
 TTTTTTTTTTTTTTTTTTTTTTTTTTTTTT PDIG        TELAPSE      740.67 TCPU      370.82
 CHARGE NORMALIZATION FACTOR   1.00000000
 TOTAL ATOMIC CHARGES:
  23.9951230  23.9957990  23.9956331  23.9949532   9.3364132   9.3364132
   9.3364132   9.3364173   9.3364173   9.3364173
 SUMMED SPIN DENSITY           0.00000000
 TOTAL ATOMIC SPINS  :
   3.8747842  -3.8741731  -3.8743244   3.8749288  -0.0003524  -0.0003524
  -0.0003524  -0.0000527  -0.0000527  -0.0000527
 TTTTTTTTTTTTTTTTTTTTTTTTTTTTTT MOQGAD      TELAPSE      740.89 TCPU      370.99
 TTTTTTTTTTTTTTTTTTTTTTTTTTTTTT SHELLX      TELAPSE      761.01 TCPU      382.55
 TTTTTTTTTTTTTTTTTTTTTTTTTTTTTT MONMO3      TELAPSE      764.59 TCPU      383.90
 NUMERICALLY INTEGRATED DENSITY     76.0000263390     75.9999757450
 TTTTTTTTTTTTTTTTTTTTTTTTTTTTTT NUMDFT      TELAPSE      858.60 TCPU      428.77
 CYC   4 ETOT(AU) -5.505303003549E+03 DETOT -1.77E-02 tst  2.97E-04 PX  1.83E-02
 TTTTTTTTTTTTTTTTTTTTTTTTTTTTTT FDIK        TELAPSE      883.11 TCPU      438.22
 INSULATING STATE - TOP OF VALENCE BANDS (A.U.) -1.0000000E+00
 TTTTTTTTTTTTTTTTTTTTTTTTTTTTTT PDIG        TELAPSE      885.77 TCPU      440.58
 CHARGE NORMALIZATION FACTOR   1.00000000
 TOTAL ATOMIC CHARGES:
  23.9965427  23.9967734  23.9965760  23.9963601   9.3356229   9.3356229
   9.3356229   9.3356264   9.3356264   9.3356264
 SUMMED SPIN DENSITY           0.00000000
 TOTAL ATOMIC SPINS  :
   3.8618698  -3.8614829  -3.8616217   3.8619925  -0.0002797  -0.0002797
  -0.0002797   0.0000272   0.0000272   0.0000272
 TTTTTTTTTTTTTTTTTTTTTTTTTTTTTT MOQGAD      TELAPSE      886.03 TCPU      440.75
 TTTTTTTTTTTTTTTTTTTTTTTTTTTTTT SHELLX      TELAPSE      908.32 TCPU      451.96
 TTTTTTTTTTTTTTTTTTTTTTTTTTTTTT MONMO3      TELAPSE      912.70 TCPU      453.36
 NUMERICALLY INTEGRATED DENSITY     76.0000264042     75.9999758816
 TTTTTTTTTTTTTTTTTTTTTTTTTTTTTT NUMDFT      TELAPSE     1003.23 TCPU      499.08
 CYC   5 ETOT(AU) -5.505304161216E+03 DETOT -1.16E-03 tst  1.36E-04 PX  3.22E-03
 TTTTTTTTTTTTTTTTTTTTTTTTTTTTTT FDIK        TELAPSE     1025.16 TCPU      508.64
 INSULATING STATE - TOP OF VALENCE BANDS (A.U.) -1.0000000E+00
 TTTTTTTTTTTTTTTTTTTTTTTTTTTTTT PDIG        TELAPSE     1030.20 TCPU      510.82
 CHARGE NORMALIZATION FACTOR   1.00000000
 TOTAL ATOMIC CHARGES:
  23.9819661  23.9820380  23.9819607  23.9818895   9.3453571   9.3453571
   9.3453571   9.3453581   9.3453581   9.3453581
 SUMMED SPIN DENSITY           0.00000000
 TOTAL ATOMIC SPINS  :
   3.8643480  -3.8640589  -3.8640946   3.8643756  -0.0002389  -0.0002389
  -0.0002389   0.0000488   0.0000488   0.0000488
 TTTTTTTTTTTTTTTTTTTTTTTTTTTTTT MOQGAD      TELAPSE     1030.52 TCPU      510.98
 TTTTTTTTTTTTTTTTTTTTTTTTTTTTTT SHELLX      TELAPSE     1049.98 TCPU      521.89
 TTTTTTTTTTTTTTTTTTTTTTTTTTTTTT MONMO3      TELAPSE     1053.25 TCPU      523.23
 NUMERICALLY INTEGRATED DENSITY     76.0000264029     75.9999758734
 TTTTTTTTTTTTTTTTTTTTTTTTTTTTTT NUMDFT      TELAPSE     1145.92 TCPU      568.82
 CYC   6 ETOT(AU) -5.505305201284E+03 DETOT -1.04E-03 tst  1.69E-04 PX  3.43E-03
 TTTTTTTTTTTTTTTTTTTTTTTTTTTTTT FDIK        TELAPSE     1165.86 TCPU      579.45
 INSULATING STATE - TOP OF VALENCE BANDS (A.U.) -1.0000000E+00
 TTTTTTTTTTTTTTTTTTTTTTTTTTTTTT PDIG        TELAPSE     1168.07 TCPU      580.56
 CHARGE NORMALIZATION FACTOR   1.00000000
 TOTAL ATOMIC CHARGES:
  23.9810632  23.9812921  23.9812192  23.9809887   9.3459059   9.3459059
   9.3459059   9.3459063   9.3459063   9.3459063
 SUMMED SPIN DENSITY           0.00000000
 TOTAL ATOMIC SPINS  :
   3.8585160  -3.8581584  -3.8581644   3.8585161  -0.0002623  -0.0002623
  -0.0002623   0.0000258   0.0000258   0.0000258
 TTTTTTTTTTTTTTTTTTTTTTTTTTTTTT MOQGAD      TELAPSE     1168.37 TCPU      580.72
 TTTTTTTTTTTTTTTTTTTTTTTTTTTTTT SHELLX      TELAPSE     1187.38 TCPU      591.37
 TTTTTTTTTTTTTTTTTTTTTTTTTTTTTT MONMO3      TELAPSE     1191.06 TCPU      592.78
 NUMERICALLY INTEGRATED DENSITY     76.0000263667     75.9999758591
 TTTTTTTTTTTTTTTTTTTTTTTTTTTTTT NUMDFT      TELAPSE     1289.68 TCPU      637.54
 CYC   7 ETOT(AU) -5.505305460256E+03 DETOT -2.59E-04 tst  9.12E-05 PX  1.13E-03
 TTTTTTTTTTTTTTTTTTTTTTTTTTTTTT FDIK        TELAPSE     1308.70 TCPU      647.24
 INSULATING STATE - TOP OF VALENCE BANDS (A.U.) -1.0000000E+00
 TTTTTTTTTTTTTTTTTTTTTTTTTTTTTT PDIG        TELAPSE     1311.16 TCPU      649.40
 CHARGE NORMALIZATION FACTOR   1.00000000
 TOTAL ATOMIC CHARGES:
  23.9850588  23.9852957  23.9851835  23.9849489   9.3432519   9.3432519
   9.3432519   9.3432525   9.3432525   9.3432525
 SUMMED SPIN DENSITY           0.00000000
 TOTAL ATOMIC SPINS  :
   3.8496652  -3.8493051  -3.8493139   3.8496666  -0.0002664  -0.0002664
  -0.0002664   0.0000288   0.0000288   0.0000288
 TTTTTTTTTTTTTTTTTTTTTTTTTTTTTT MOQGAD      TELAPSE     1311.47 TCPU      649.56
 TTTTTTTTTTTTTTTTTTTTTTTTTTTTTT SHELLX      TELAPSE     1330.99 TCPU      660.54
 TTTTTTTTTTTTTTTTTTTTTTTTTTTTTT MONMO3      TELAPSE     1334.50 TCPU      661.87
 NUMERICALLY INTEGRATED DENSITY     76.0000263471     75.9999758962
 TTTTTTTTTTTTTTTTTTTTTTTTTTTTTT NUMDFT      TELAPSE     1426.89 TCPU      705.82
 CYC   8 ETOT(AU) -5.505305642306E+03 DETOT -1.82E-04 tst  5.48E-05 PX  1.36E-03
 TTTTTTTTTTTTTTTTTTTTTTTTTTTTTT FDIK        TELAPSE     1445.47 TCPU      715.82
 INSULATING STATE - TOP OF VALENCE BANDS (A.U.) -1.0000000E+00
 TTTTTTTTTTTTTTTTTTTTTTTTTTTTTT PDIG        TELAPSE     1447.68 TCPU      716.93
 CHARGE NORMALIZATION FACTOR   1.00000000
 TOTAL ATOMIC CHARGES:
  23.9866270  23.9868161  23.9867025  23.9865148   9.3422230   9.3422230
   9.3422230   9.3422235   9.3422235   9.3422235
 SUMMED SPIN DENSITY           0.00000000
 TOTAL ATOMIC SPINS  :
   3.8434400  -3.8431040  -3.8430979   3.8434271  -0.0002589  -0.0002589
  -0.0002589   0.0000372   0.0000372   0.0000372
 TTTTTTTTTTTTTTTTTTTTTTTTTTTTTT MOQGAD      TELAPSE     1447.97 TCPU      717.08
 TTTTTTTTTTTTTTTTTTTTTTTTTTTTTT SHELLX      TELAPSE     1466.63 TCPU      727.59
 TTTTTTTTTTTTTTTTTTTTTTTTTTTTTT MONMO3      TELAPSE     1470.38 TCPU      728.99
 NUMERICALLY INTEGRATED DENSITY     76.0000263371     75.9999759421
 TTTTTTTTTTTTTTTTTTTTTTTTTTTTTT NUMDFT      TELAPSE     1569.04 TCPU      773.30
 CYC   9 ETOT(AU) -5.505305740107E+03 DETOT -9.78E-05 tst  4.40E-05 PX  1.27E-03
 TTTTTTTTTTTTTTTTTTTTTTTTTTTTTT FDIK        TELAPSE     1582.83 TCPU      782.39
 INSULATING STATE - TOP OF VALENCE BANDS (A.U.) -1.0000000E+00
 TTTTTTTTTTTTTTTTTTTTTTTTTTTTTT PDIG        TELAPSE     1585.23 TCPU      783.59
 CHARGE NORMALIZATION FACTOR   1.00000000
 TOTAL ATOMIC CHARGES:
  23.9869342  23.9871305  23.9870317  23.9868353   9.3420112   9.3420112
   9.3420112   9.3420116   9.3420116   9.3420116
 SUMMED SPIN DENSITY           0.00000000
 TOTAL ATOMIC SPINS  :
   3.8391308  -3.8387927  -3.8387636   3.8390963  -0.0002587  -0.0002587
  -0.0002587   0.0000351   0.0000351   0.0000351
 TTTTTTTTTTTTTTTTTTTTTTTTTTTTTT MOQGAD      TELAPSE     1585.54 TCPU      783.75
 TTTTTTTTTTTTTTTTTTTTTTTTTTTTTT SHELLX      TELAPSE     1606.52 TCPU      795.44
 TTTTTTTTTTTTTTTTTTTTTTTTTTTTTT MONMO3      TELAPSE     1609.88 TCPU      796.78
 NUMERICALLY INTEGRATED DENSITY     76.0000263244     75.9999759731
 TTTTTTTTTTTTTTTTTTTTTTTTTTTTTT NUMDFT      TELAPSE     1700.83 TCPU      841.90
 CYC  10 ETOT(AU) -5.505305803412E+03 DETOT -6.33E-05 tst  3.55E-05 PX  9.77E-04
 TTTTTTTTTTTTTTTTTTTTTTTTTTTTTT FDIK        TELAPSE     1717.42 TCPU      850.84
 INSULATING STATE - TOP OF VALENCE BANDS (A.U.) -1.0000000E+00
 TTTTTTTTTTTTTTTTTTTTTTTTTTTTTT PDIG        TELAPSE     1719.61 TCPU      851.94
 CHARGE NORMALIZATION FACTOR   1.00000000
 TOTAL ATOMIC CHARGES:
  23.9875045  23.9877098  23.9876157  23.9874102   9.3416264   9.3416264
   9.3416264   9.3416268   9.3416268   9.3416268
 SUMMED SPIN DENSITY           0.00000000
 TOTAL ATOMIC SPINS  :
   3.8354203  -3.8350779  -3.8350333   3.8353708  -0.0002597  -0.0002597
  -0.0002597   0.0000330   0.0000330   0.0000330
 TTTTTTTTTTTTTTTTTTTTTTTTTTTTTT MOQGAD      TELAPSE     1719.90 TCPU      852.09
 TTTTTTTTTTTTTTTTTTTTTTTTTTTTTT SHELLX      TELAPSE     1738.62 TCPU      862.63
 TTTTTTTTTTTTTTTTTTTTTTTTTTTTTT MONMO3      TELAPSE     1742.17 TCPU      863.96
 NUMERICALLY INTEGRATED DENSITY     76.0000263086     75.9999759954
 TTTTTTTTTTTTTTTTTTTTTTTTTTTTTT NUMDFT      TELAPSE     1835.01 TCPU      909.49
 CYC  11 ETOT(AU) -5.505305843038E+03 DETOT -3.96E-05 tst  2.71E-05 PX  7.63E-04
 TTTTTTTTTTTTTTTTTTTTTTTTTTTTTT FDIK        TELAPSE     1853.71 TCPU      917.91
 INSULATING STATE - TOP OF VALENCE BANDS (A.U.) -1.0000000E+00
 TTTTTTTTTTTTTTTTTTTTTTTTTTTTTT PDIG        TELAPSE     1856.30 TCPU      920.35
 CHARGE NORMALIZATION FACTOR   1.00000000
 TOTAL ATOMIC CHARGES:
  23.9881901  23.9883897  23.9882936  23.9880942   9.3411719   9.3411719
   9.3411719   9.3411723   9.3411723   9.3411723
 SUMMED SPIN DENSITY           0.00000000
 TOTAL ATOMIC SPINS  :
   3.8322324  -3.8318924  -3.8318384   3.8321733  -0.0002588  -0.0002588
  -0.0002588   0.0000339   0.0000339   0.0000339
 TTTTTTTTTTTTTTTTTTTTTTTTTTTTTT MOQGAD      TELAPSE     1856.56 TCPU      920.51
 TTTTTTTTTTTTTTTTTTTTTTTTTTTTTT SHELLX      TELAPSE     1878.71 TCPU      932.05
 TTTTTTTTTTTTTTTTTTTTTTTTTTTTTT MONMO3      TELAPSE     1882.09 TCPU      933.44
 NUMERICALLY INTEGRATED DENSITY     76.0000262939     75.9999760144
 TTTTTTTTTTTTTTTTTTTTTTTTTTTTTT NUMDFT      TELAPSE     1972.54 TCPU      979.07
 CYC  12 ETOT(AU) -5.505305869551E+03 DETOT -2.65E-05 tst  2.08E-05 PX  6.29E-04
 TTTTTTTTTTTTTTTTTTTTTTTTTTTTTT FDIK        TELAPSE     1991.64 TCPU      988.09
 INSULATING STATE - TOP OF VALENCE BANDS (A.U.) -1.0000000E+00
 TTTTTTTTTTTTTTTTTTTTTTTTTTTTTT PDIG        TELAPSE     1996.38 TCPU      990.52
 CHARGE NORMALIZATION FACTOR   1.00000000
 TOTAL ATOMIC CHARGES:
  23.9886968  23.9888950  23.9887994  23.9886011   9.3408344   9.3408344
   9.3408344   9.3408348   9.3408348   9.3408348
 SUMMED SPIN DENSITY           0.00000000
 TOTAL ATOMIC SPINS  :
   3.8296634  -3.8293235  -3.8292607   3.8295955  -0.0002587  -0.0002587
  -0.0002587   0.0000337   0.0000337   0.0000337
 TTTTTTTTTTTTTTTTTTTTTTTTTTTTTT MOQGAD      TELAPSE     1996.56 TCPU      990.70
 TTTTTTTTTTTTTTTTTTTTTTTTTTTTTT SHELLX      TELAPSE     2020.67 TCPU     1002.17
 TTTTTTTTTTTTTTTTTTTTTTTTTTTTTT MONMO3      TELAPSE     2023.30 TCPU     1003.50
 NUMERICALLY INTEGRATED DENSITY     76.0000262809     75.9999760304
 TTTTTTTTTTTTTTTTTTTTTTTTTTTTTT NUMDFT      TELAPSE     2123.89 TCPU     1049.08
 CYC  13 ETOT(AU) -5.505305887541E+03 DETOT -1.80E-05 tst  1.63E-05 PX  5.18E-04
 TTTTTTTTTTTTTTTTTTTTTTTTTTTTTT FDIK        TELAPSE     2140.22 TCPU     1058.12
 INSULATING STATE - TOP OF VALENCE BANDS (A.U.) -1.0000000E+00
 TTTTTTTTTTTTTTTTTTTTTTTTTTTTTT PDIG        TELAPSE     2144.84 TCPU     1059.23
 CHARGE NORMALIZATION FACTOR   1.00000000
 TOTAL ATOMIC CHARGES:
  23.9890674  23.9892665  23.9891732  23.9889740   9.3405863   9.3405863
   9.3405863   9.3405866   9.3405866   9.3405866
 SUMMED SPIN DENSITY           0.00000000
 TOTAL ATOMIC SPINS  :
   3.8275970  -3.8272564  -3.8271848   3.8275204  -0.0002586  -0.0002586
  -0.0002586   0.0000331   0.0000331   0.0000331
 TTTTTTTTTTTTTTTTTTTTTTTTTTTTTT MOQGAD      TELAPSE     2145.16 TCPU     1059.39
 TTTTTTTTTTTTTTTTTTTTTTTTTTTTTT SHELLX      TELAPSE     2166.23 TCPU     1071.09
 TTTTTTTTTTTTTTTTTTTTTTTTTTTTTT MONMO3      TELAPSE     2169.54 TCPU     1072.44
 NUMERICALLY INTEGRATED DENSITY     76.0000262693     75.9999760433
 TTTTTTTTTTTTTTTTTTTTTTTTTTTTTT NUMDFT      TELAPSE     2258.95 TCPU     1116.75
 CYC  14 ETOT(AU) -5.505305899833E+03 DETOT -1.23E-05 tst  1.29E-05 PX  4.21E-04
 TTTTTTTTTTTTTTTTTTTTTTTTTTTTTT FDIK        TELAPSE     2275.10 TCPU     1125.59
 INSULATING STATE - TOP OF VALENCE BANDS (A.U.) -1.0000000E+00
 TTTTTTTTTTTTTTTTTTTTTTTTTTTTTT PDIG        TELAPSE     2278.15 TCPU     1127.33
 CHARGE NORMALIZATION FACTOR   1.00000000
 TOTAL ATOMIC CHARGES:
  23.9893749  23.9895727  23.9894807  23.9892831   9.3403812   9.3403812
   9.3403812   9.3403816   9.3403816   9.3403816
 SUMMED SPIN DENSITY           0.00000000
 TOTAL ATOMIC SPINS  :
   3.8259057  -3.8255653  -3.8254864   3.8258217  -0.0002582  -0.0002582
  -0.0002582   0.0000329   0.0000329   0.0000329
 TTTTTTTTTTTTTTTTTTTTTTTTTTTTTT MOQGAD      TELAPSE     2278.49 TCPU     1127.50
 TTTTTTTTTTTTTTTTTTTTTTTTTTTTTT SHELLX      TELAPSE     2297.33 TCPU     1138.10
 TTTTTTTTTTTTTTTTTTTTTTTTTTTTTT MONMO3      TELAPSE     2300.78 TCPU     1139.43
 NUMERICALLY INTEGRATED DENSITY     76.0000262589     75.9999760537
 TTTTTTTTTTTTTTTTTTTTTTTTTTTTTT NUMDFT      TELAPSE     2395.40 TCPU     1185.50
 CYC  15 ETOT(AU) -5.505305908376E+03 DETOT -8.54E-06 tst  1.01E-05 PX  3.43E-04
 TTTTTTTTTTTTTTTTTTTTTTTTTTTTTT FDIK        TELAPSE     2411.77 TCPU     1193.69
 INSULATING STATE - TOP OF VALENCE BANDS (A.U.) -1.0000000E+00
 TTTTTTTTTTTTTTTTTTTTTTTTTTTTTT PDIG        TELAPSE     2413.96 TCPU     1194.81
 CHARGE NORMALIZATION FACTOR   1.00000000
 TOTAL ATOMIC CHARGES:
  23.9896322  23.9898304  23.9897391  23.9895409   9.3402094   9.3402094
   9.3402094   9.3402097   9.3402097   9.3402097
 SUMMED SPIN DENSITY           0.00000000
 TOTAL ATOMIC SPINS  :
   3.8245148  -3.8241736  -3.8240889   3.8244249  -0.0002582  -0.0002582
  -0.0002582   0.0000324   0.0000324   0.0000324
 TTTTTTTTTTTTTTTTTTTTTTTTTTTTTT MOQGAD      TELAPSE     2414.26 TCPU     1194.95
 TTTTTTTTTTTTTTTTTTTTTTTTTTTTTT SHELLX      TELAPSE     2433.75 TCPU     1205.94
 TTTTTTTTTTTTTTTTTTTTTTTTTTTTTT MONMO3      TELAPSE     2437.65 TCPU     1207.34
 NUMERICALLY INTEGRATED DENSITY     76.0000262499     75.9999760623
 TTTTTTTTTTTTTTTTTTTTTTTTTTTTTT NUMDFT      TELAPSE     2529.69 TCPU     1252.09
 CYC  16 ETOT(AU) -5.505305914381E+03 DETOT -6.01E-06 tst  8.01E-06 PX  2.81E-04
 TTTTTTTTTTTTTTTTTTTTTTTTTTTTTT FDIK        TELAPSE     2546.76 TCPU     1260.63
 INSULATING STATE - TOP OF VALENCE BANDS (A.U.) -1.0000000E+00
 TTTTTTTTTTTTTTTTTTTTTTTTTTTTTT PDIG        TELAPSE     2549.63 TCPU     1261.81
 CHARGE NORMALIZATION FACTOR   1.00000000
 TOTAL ATOMIC CHARGES:
  23.9898435  23.9900412  23.9899505  23.9897528   9.3400685   9.3400685
   9.3400685   9.3400688   9.3400688   9.3400688
 SUMMED SPIN DENSITY           0.00000000
 TOTAL ATOMIC SPINS  :
   3.8233711  -3.8230296  -3.8229397   3.8232761  -0.0002581  -0.0002581
  -0.0002581   0.0000321   0.0000321   0.0000321
 TTTTTTTTTTTTTTTTTTTTTTTTTTTTTT MOQGAD      TELAPSE     2549.94 TCPU     1261.97
 TTTTTTTTTTTTTTTTTTTTTTTTTTTTTT SHELLX      TELAPSE     2569.45 TCPU     1272.93
 TTTTTTTTTTTTTTTTTTTTTTTTTTTTTT MONMO3      TELAPSE     2572.85 TCPU     1274.25
 NUMERICALLY INTEGRATED DENSITY     76.0000262419     75.9999760694
 TTTTTTTTTTTTTTTTTTTTTTTTTTTTTT NUMDFT      TELAPSE     2668.45 TCPU     1319.03
 CYC  17 ETOT(AU) -5.505305918690E+03 DETOT -4.31E-06 tst  6.34E-06 PX  2.32E-04
 TTTTTTTTTTTTTTTTTTTTTTTTTTTTTT FDIK        TELAPSE     2684.73 TCPU     1327.17
 INSULATING STATE - TOP OF VALENCE BANDS (A.U.) -1.0000000E+00
 TTTTTTTTTTTTTTTTTTTTTTTTTTTTTT PDIG        TELAPSE     2686.95 TCPU     1328.28
 CHARGE NORMALIZATION FACTOR   1.00000000
 TOTAL ATOMIC CHARGES:
  23.9900158  23.9902135  23.9901235  23.9899258   9.3399534   9.3399534
   9.3399534   9.3399537   9.3399537   9.3399537
 SUMMED SPIN DENSITY           0.00000000
 TOTAL ATOMIC SPINS  :
   3.8224292  -3.8220873  -3.8219930   3.8223296  -0.0002580  -0.0002580
  -0.0002580   0.0000318   0.0000318   0.0000318
 TTTTTTTTTTTTTTTTTTTTTTTTTTTTTT MOQGAD      TELAPSE     2687.24 TCPU     1328.43
 TTTTTTTTTTTTTTTTTTTTTTTTTTTTTT SHELLX      TELAPSE     2706.38 TCPU     1339.21
 TTTTTTTTTTTTTTTTTTTTTTTTTTTTTT MONMO3      TELAPSE     2710.23 TCPU     1340.60
 NUMERICALLY INTEGRATED DENSITY     76.0000262352     75.9999760753
 TTTTTTTTTTTTTTTTTTTTTTTTTTTTTT NUMDFT      TELAPSE     2809.36 TCPU     1384.59
 CYC  18 ETOT(AU) -5.505305921791E+03 DETOT -3.10E-06 tst  5.03E-06 PX  1.91E-04
 TTTTTTTTTTTTTTTTTTTTTTTTTTTTTT FDIK        TELAPSE     2826.55 TCPU     1393.26
 INSULATING STATE - TOP OF VALENCE BANDS (A.U.) -1.0000000E+00
 TTTTTTTTTTTTTTTTTTTTTTTTTTTTTT PDIG        TELAPSE     2829.81 TCPU     1394.44
 CHARGE NORMALIZATION FACTOR   1.00000000
 TOTAL ATOMIC CHARGES:
  23.9901579  23.9903556  23.9902663  23.9900686   9.3398584   9.3398584
   9.3398584   9.3398587   9.3398587   9.3398587
 SUMMED SPIN DENSITY           0.00000000
 TOTAL ATOMIC SPINS  :
   3.8216512  -3.8213089  -3.8212106   3.8215477  -0.0002580  -0.0002580
  -0.0002580   0.0000315   0.0000315   0.0000315
 TTTTTTTTTTTTTTTTTTTTTTTTTTTTTT MOQGAD      TELAPSE     2830.13 TCPU     1394.60
 TTTTTTTTTTTTTTTTTTTTTTTTTTTTTT SHELLX      TELAPSE     2849.48 TCPU     1405.15
 TTTTTTTTTTTTTTTTTTTTTTTTTTTTTT MONMO3      TELAPSE     2852.97 TCPU     1406.48
 NUMERICALLY INTEGRATED DENSITY     76.0000262293     75.9999760801
 TTTTTTTTTTTTTTTTTTTTTTTTTTTTTT NUMDFT      TELAPSE     2956.18 TCPU     1450.64
 CYC  19 ETOT(AU) -5.505305924061E+03 DETOT -2.27E-06 tst  3.99E-06 PX  1.58E-04
 TTTTTTTTTTTTTTTTTTTTTTTTTTTTTT FDIK        TELAPSE     2970.90 TCPU     1458.99
 INSULATING STATE - TOP OF VALENCE BANDS (A.U.) -1.0000000E+00
 TTTTTTTTTTTTTTTTTTTTTTTTTTTTTT PDIG        TELAPSE     2973.37 TCPU     1461.39
 CHARGE NORMALIZATION FACTOR   1.00000000
 TOTAL ATOMIC CHARGES:
  23.9902745  23.9904732  23.9903844  23.9901856   9.3397802   9.3397802
   9.3397802   9.3397805   9.3397805   9.3397805
 SUMMED SPIN DENSITY           0.00000000
 TOTAL ATOMIC SPINS  :
   3.8210071  -3.8206642  -3.8205626   3.8209003  -0.0002580  -0.0002580
  -0.0002580   0.0000312   0.0000312   0.0000312
 TTTTTTTTTTTTTTTTTTTTTTTTTTTTTT MOQGAD      TELAPSE     2973.55 TCPU     1461.57
 TTTTTTTTTTTTTTTTTTTTTTTTTTTTTT SHELLX      TELAPSE     2990.51 TCPU     1472.94
 TTTTTTTTTTTTTTTTTTTTTTTTTTTTTT MONMO3      TELAPSE     2996.10 TCPU     1474.34
 NUMERICALLY INTEGRATED DENSITY     76.0000262243     75.9999760841
 TTTTTTTTTTTTTTTTTTTTTTTTTTTTTT NUMDFT      TELAPSE     3088.16 TCPU     1519.74
 CYC  20 ETOT(AU) -5.505305925733E+03 DETOT -1.67E-06 tst  3.17E-06 PX  1.31E-04
 TTTTTTTTTTTTTTTTTTTTTTTTTTTTTT FDIK        TELAPSE     3105.08 TCPU     1528.07
 INSULATING STATE - TOP OF VALENCE BANDS (A.U.) -1.0000000E+00
 TTTTTTTTTTTTTTTTTTTTTTTTTTTTTT PDIG        TELAPSE     3107.44 TCPU     1529.25
 CHARGE NORMALIZATION FACTOR   1.00000000
 TOTAL ATOMIC CHARGES:
  23.9903730  23.9905692  23.9904807  23.9902845   9.3397153   9.3397153
   9.3397153   9.3397156   9.3397156   9.3397156
 SUMMED SPIN DENSITY           0.00000000
 TOTAL ATOMIC SPINS  :
   3.8204715  -3.8201293  -3.8200250   3.8203618  -0.0002576  -0.0002576
  -0.0002576   0.0000313   0.0000313   0.0000313
 TTTTTTTTTTTTTTTTTTTTTTTTTTTTTT MOQGAD      TELAPSE     3107.75 TCPU     1529.40
 TTTTTTTTTTTTTTTTTTTTTTTTTTTTTT SHELLX      TELAPSE     3127.66 TCPU     1540.51
 TTTTTTTTTTTTTTTTTTTTTTTTTTTTTT MONMO3      TELAPSE     3130.90 TCPU     1541.83
 NUMERICALLY INTEGRATED DENSITY     76.0000262199     75.9999760875
 TTTTTTTTTTTTTTTTTTTTTTTTTTTTTT NUMDFT      TELAPSE     3224.94 TCPU     1586.63
 CYC  21 ETOT(AU) -5.505305926990E+03 DETOT -1.26E-06 tst  2.52E-06 PX  1.09E-04
 TTTTTTTTTTTTTTTTTTTTTTTTTTTTTT FDIK        TELAPSE     3241.41 TCPU     1595.01
 INSULATING STATE - TOP OF VALENCE BANDS (A.U.) -1.0000000E+00
 TTTTTTTTTTTTTTTTTTTTTTTTTTTTTT PDIG        TELAPSE     3243.62 TCPU     1596.12
 CHARGE NORMALIZATION FACTOR   1.00000000
 TOTAL ATOMIC CHARGES:
  23.9904538  23.9906515  23.9905634  23.9903657   9.3396608   9.3396608
   9.3396608   9.3396611   9.3396611   9.3396611
 SUMMED SPIN DENSITY           0.00000000
 TOTAL ATOMIC SPINS  :
   3.8200261  -3.8196828  -3.8195760   3.8199140  -0.0002579  -0.0002579
  -0.0002579   0.0000308   0.0000308   0.0000308
 TTTTTTTTTTTTTTTTTTTTTTTTTTTTTT MOQGAD      TELAPSE     3243.90 TCPU     1596.26
 TTTTTTTTTTTTTTTTTTTTTTTTTTTTTT SHELLX      TELAPSE     3262.59 TCPU     1606.80
 TTTTTTTTTTTTTTTTTTTTTTTTTTTTTT MONMO3      TELAPSE     3266.38 TCPU     1608.19
 NUMERICALLY INTEGRATED DENSITY     76.0000262163     75.9999760903
 TTTTTTTTTTTTTTTTTTTTTTTTTTTTTT NUMDFT      TELAPSE     3362.54 TCPU     1653.63
 CYC  22 ETOT(AU) -5.505305927931E+03 DETOT -9.41E-07 tst  2.01E-06 PX  9.07E-05
 TTTTTTTTTTTTTTTTTTTTTTTTTTTTTT FDIK        TELAPSE     3377.82 TCPU     1661.78
 INSULATING STATE - TOP OF VALENCE BANDS (A.U.) -1.0000000E+00
 TTTTTTTTTTTTTTTTTTTTTTTTTTTTTT PDIG        TELAPSE     3380.19 TCPU     1662.96
 CHARGE NORMALIZATION FACTOR   1.00000000
 TOTAL ATOMIC CHARGES:
  23.9905216  23.9907190  23.9906312  23.9904338   9.3396156   9.3396156
   9.3396156   9.3396159   9.3396159   9.3396159
 SUMMED SPIN DENSITY           0.00000000
 TOTAL ATOMIC SPINS  :
   3.8196544  -3.8193111  -3.8192021   3.8195400  -0.0002578  -0.0002578
  -0.0002578   0.0000307   0.0000307   0.0000307
 TTTTTTTTTTTTTTTTTTTTTTTTTTTTTT MOQGAD      TELAPSE     3380.50 TCPU     1663.12
 TTTTTTTTTTTTTTTTTTTTTTTTTTTTTT SHELLX      TELAPSE     3400.95 TCPU     1674.51
 TTTTTTTTTTTTTTTTTTTTTTTTTTTTTT MONMO3      TELAPSE     3404.26 TCPU     1675.85
 NUMERICALLY INTEGRATED DENSITY     76.0000262131     75.9999760926
 TTTTTTTTTTTTTTTTTTTTTTTTTTTTTT NUMDFT      TELAPSE     3498.18 TCPU     1723.59
 CYC  23 ETOT(AU) -5.505305928645E+03 DETOT -7.14E-07 tst  1.60E-06 PX  7.57E-05
 TTTTTTTTTTTTTTTTTTTTTTTTTTTTTT FDIK        TELAPSE     3514.20 TCPU     1731.80
 INSULATING STATE - TOP OF VALENCE BANDS (A.U.) -1.0000000E+00
 TTTTTTTTTTTTTTTTTTTTTTTTTTTTTT PDIG        TELAPSE     3516.40 TCPU     1732.91
 CHARGE NORMALIZATION FACTOR   1.00000000
 TOTAL ATOMIC CHARGES:
  23.9905780  23.9907748  23.9906872  23.9904905   9.3395781   9.3395781
   9.3395781   9.3395784   9.3395784   9.3395784
 SUMMED SPIN DENSITY           0.00000000
 TOTAL ATOMIC SPINS  :
   3.8193438  -3.8190006  -3.8188898   3.8192276  -0.0002577  -0.0002577
  -0.0002577   0.0000307   0.0000307   0.0000307
 TTTTTTTTTTTTTTTTTTTTTTTTTTTTTT MOQGAD      TELAPSE     3516.69 TCPU     1733.06
 TTTTTTTTTTTTTTTTTTTTTTTTTTTTTT SHELLX      TELAPSE     3535.42 TCPU     1743.60
 TTTTTTTTTTTTTTTTTTTTTTTTTTTTTT MONMO3      TELAPSE     3538.97 TCPU     1744.93
 NUMERICALLY INTEGRATED DENSITY     76.0000262104     75.9999760946
 TTTTTTTTTTTTTTTTTTTTTTTTTTTTTT NUMDFT      TELAPSE     3631.66 TCPU     1791.20
 CYC  24 ETOT(AU) -5.505305929195E+03 DETOT -5.50E-07 tst  1.27E-06 PX  6.36E-05
 TTTTTTTTTTTTTTTTTTTTTTTTTTTTTT FDIK        TELAPSE     3647.40 TCPU     1799.14
 INSULATING STATE - TOP OF VALENCE BANDS (A.U.) -1.0000000E+00
 TTTTTTTTTTTTTTTTTTTTTTTTTTTTTT PDIG        TELAPSE     3649.78 TCPU     1800.33
 CHARGE NORMALIZATION FACTOR   1.00000000
 TOTAL ATOMIC CHARGES:
  23.9906252  23.9908228  23.9907354  23.9905380   9.3395463   9.3395463
   9.3395463   9.3395466   9.3395466   9.3395466
 SUMMED SPIN DENSITY           0.00000000
 TOTAL ATOMIC SPINS  :
   3.8190838  -3.8187400  -3.8186276   3.8189660  -0.0002578  -0.0002578
  -0.0002578   0.0000304   0.0000304   0.0000304
 TTTTTTTTTTTTTTTTTTTTTTTTTTTTTT MOQGAD      TELAPSE     3650.09 TCPU     1800.49
 TTTTTTTTTTTTTTTTTTTTTTTTTTTTTT SHELLX      TELAPSE     3670.62 TCPU     1812.17
 TTTTTTTTTTTTTTTTTTTTTTTTTTTTTT MONMO3      TELAPSE     3674.23 TCPU     1813.51
 NUMERICALLY INTEGRATED DENSITY     76.0000262081     75.9999760962
 TTTTTTTTTTTTTTTTTTTTTTTTTTTTTT NUMDFT      TELAPSE     3769.64 TCPU     1858.37
 CYC  25 ETOT(AU) -5.505305929619E+03 DETOT -4.24E-07 tst  1.01E-06 PX  5.32E-05
 TTTTTTTTTTTTTTTTTTTTTTTTTTTTTT FDIK        TELAPSE     3784.66 TCPU     1866.82
 INSULATING STATE - TOP OF VALENCE BANDS (A.U.) -1.0000000E+00
 TTTTTTTTTTTTTTTTTTTTTTTTTTTTTT PDIG        TELAPSE     3789.11 TCPU     1868.14
 CHARGE NORMALIZATION FACTOR   1.00000000
 TOTAL ATOMIC CHARGES:
  23.9906648  23.9908624  23.9907752  23.9905778   9.3395198   9.3395198
   9.3395198   9.3395201   9.3395201   9.3395201
 SUMMED SPIN DENSITY           0.00000000
 TOTAL ATOMIC SPINS  :
   3.8188657  -3.8185217  -3.8184079   3.8187464  -0.0002578  -0.0002578
  -0.0002578   0.0000303   0.0000303   0.0000303
 TTTTTTTTTTTTTTTTTTTTTTTTTTTTTT MOQGAD      TELAPSE     3789.29 TCPU     1868.32
 TTTTTTTTTTTTTTTTTTTTTTTTTTTTTT SHELLX      TELAPSE     3810.07 TCPU     1879.70
 TTTTTTTTTTTTTTTTTTTTTTTTTTTTTT MONMO3      TELAPSE     3812.81 TCPU     1881.03
 NUMERICALLY INTEGRATED DENSITY     76.0000262062     75.9999760976
 TTTTTTTTTTTTTTTTTTTTTTTTTTTTTT NUMDFT      TELAPSE     3915.20 TCPU     1925.17
 CYC  26 ETOT(AU) -5.505305929951E+03 DETOT -3.32E-07 tst  8.09E-07 PX  4.48E-05
 TTTTTTTTTTTTTTTTTTTTTTTTTTTTTT FDIK        TELAPSE     3927.23 TCPU     1933.55
 INSULATING STATE - TOP OF VALENCE BANDS (A.U.) -1.0000000E+00
 TTTTTTTTTTTTTTTTTTTTTTTTTTTTTT PDIG        TELAPSE     3929.57 TCPU     1934.71
 CHARGE NORMALIZATION FACTOR   1.00000000
 TOTAL ATOMIC CHARGES:
  23.9906986  23.9908955  23.9908085  23.9906116   9.3394975   9.3394975
   9.3394975   9.3394978   9.3394978   9.3394978
 SUMMED SPIN DENSITY           0.00000000
 TOTAL ATOMIC SPINS  :
   3.8186822  -3.8183383  -3.8182233   3.8185617  -0.0002577  -0.0002577
  -0.0002577   0.0000303   0.0000303   0.0000303
 TTTTTTTTTTTTTTTTTTTTTTTTTTTTTT MOQGAD      TELAPSE     3929.88 TCPU     1934.86
 TTTTTTTTTTTTTTTTTTTTTTTTTTTTTT SHELLX      TELAPSE     3953.02 TCPU     1946.55
 TTTTTTTTTTTTTTTTTTTTTTTTTTTTTT MONMO3      TELAPSE     3955.72 TCPU     1947.89
 NUMERICALLY INTEGRATED DENSITY     76.0000262045     75.9999760987
 TTTTTTTTTTTTTTTTTTTTTTTTTTTTTT NUMDFT      TELAPSE     4054.37 TCPU     1991.54
 CYC  27 ETOT(AU) -5.505305930213E+03 DETOT -2.62E-07 tst  6.46E-07 PX  3.77E-05
 TTTTTTTTTTTTTTTTTTTTTTTTTTTTTT FDIK        TELAPSE     4072.07 TCPU     1999.86
 INSULATING STATE - TOP OF VALENCE BANDS (A.U.) -1.0000000E+00
 TTTTTTTTTTTTTTTTTTTTTTTTTTTTTT PDIG        TELAPSE     4074.52 TCPU     2002.21
 CHARGE NORMALIZATION FACTOR   1.00000000
 TOTAL ATOMIC CHARGES:
  23.9907268  23.9909240  23.9908372  23.9906401   9.3394785   9.3394785
   9.3394785   9.3394788   9.3394788   9.3394788
 SUMMED SPIN DENSITY           0.00000000
 TOTAL ATOMIC SPINS  :
   3.8185280  -3.8181837  -3.8180677   3.8184065  -0.0002578  -0.0002578
  -0.0002578   0.0000301   0.0000301   0.0000301
 TTTTTTTTTTTTTTTTTTTTTTTTTTTTTT MOQGAD      TELAPSE     4074.70 TCPU     2002.39
 TTTTTTTTTTTTTTTTTTTTTTTTTTTTTT SHELLX      TELAPSE     4096.33 TCPU     2014.11
 TTTTTTTTTTTTTTTTTTTTTTTTTTTTTT MONMO3      TELAPSE     4099.36 TCPU     2015.50
 NUMERICALLY INTEGRATED DENSITY     76.0000262031     75.9999760997
 TTTTTTTTTTTTTTTTTTTTTTTTTTTTTT NUMDFT      TELAPSE     4190.52 TCPU     2062.03
 CYC  28 ETOT(AU) -5.505305930417E+03 DETOT -2.04E-07 tst  5.15E-07 PX  3.16E-05
 TTTTTTTTTTTTTTTTTTTTTTTTTTTTTT FDIK        TELAPSE     4209.23 TCPU     2070.02
 INSULATING STATE - TOP OF VALENCE BANDS (A.U.) -1.0000000E+00
 TTTTTTTTTTTTTTTTTTTTTTTTTTTTTT PDIG        TELAPSE     4211.62 TCPU     2071.24
 CHARGE NORMALIZATION FACTOR   1.00000000
 TOTAL ATOMIC CHARGES:
  23.9907496  23.9909473  23.9908606  23.9906630   9.3394631   9.3394631
   9.3394631   9.3394634   9.3394634   9.3394634
 SUMMED SPIN DENSITY           0.00000000
 TOTAL ATOMIC SPINS  :
   3.8183985  -3.8180541  -3.8179372   3.8182760  -0.0002578  -0.0002578
  -0.0002578   0.0000300   0.0000300   0.0000300
 TTTTTTTTTTTTTTTTTTTTTTTTTTTTTT MOQGAD      TELAPSE     4211.94 TCPU     2071.40
 TTTTTTTTTTTTTTTTTTTTTTTTTTTTTT SHELLX      TELAPSE     4232.64 TCPU     2082.96
 TTTTTTTTTTTTTTTTTTTTTTTTTTTTTT MONMO3      TELAPSE     4236.00 TCPU     2084.29
 NUMERICALLY INTEGRATED DENSITY     76.0000262018     75.9999761005
 TTTTTTTTTTTTTTTTTTTTTTTTTTTTTT NUMDFT      TELAPSE     4328.01 TCPU     2129.54
 CYC  29 ETOT(AU) -5.505305930581E+03 DETOT -1.64E-07 tst  4.11E-07 PX  2.68E-05
 TTTTTTTTTTTTTTTTTTTTTTTTTTTTTT FDIK        TELAPSE     4344.61 TCPU     2137.97
 INSULATING STATE - TOP OF VALENCE BANDS (A.U.) -1.0000000E+00
 TTTTTTTTTTTTTTTTTTTTTTTTTTTTTT PDIG        TELAPSE     4346.80 TCPU     2139.06
 CHARGE NORMALIZATION FACTOR   1.00000000
 TOTAL ATOMIC CHARGES:
  23.9907697  23.9909665  23.9908799  23.9906832   9.3394499   9.3394499
   9.3394499   9.3394502   9.3394502   9.3394502
 SUMMED SPIN DENSITY           0.00000000
 TOTAL ATOMIC SPINS  :
   3.8182888  -3.8179448  -3.8178271   3.8181655  -0.0002576  -0.0002576
  -0.0002576   0.0000301   0.0000301   0.0000301
 TTTTTTTTTTTTTTTTTTTTTTTTTTTTTT MOQGAD      TELAPSE     4347.10 TCPU     2139.20
 TTTTTTTTTTTTTTTTTTTTTTTTTTTTTT SHELLX      TELAPSE     4365.93 TCPU     2149.74
 TTTTTTTTTTTTTTTTTTTTTTTTTTTTTT MONMO3      TELAPSE     4369.40 TCPU     2151.08
 NUMERICALLY INTEGRATED DENSITY     76.0000262008     75.9999761012
 TTTTTTTTTTTTTTTTTTTTTTTTTTTTTT NUMDFT      TELAPSE     4462.94 TCPU     2197.11
 CYC  30 ETOT(AU) -5.505305930713E+03 DETOT -1.32E-07 tst  3.28E-07 PX  2.27E-05
 TTTTTTTTTTTTTTTTTTTTTTTTTTTTTT FDIK        TELAPSE     4478.38 TCPU     2205.48
 INSULATING STATE - TOP OF VALENCE BANDS (A.U.) -1.0000000E+00
 TTTTTTTTTTTTTTTTTTTTTTTTTTTTTT PDIG        TELAPSE     4481.49 TCPU     2206.99
 CHARGE NORMALIZATION FACTOR   1.00000000
 TOTAL ATOMIC CHARGES:
  23.9907870  23.9909836  23.9908970  23.9907006   9.3394385   9.3394385
   9.3394385   9.3394388   9.3394388   9.3394388
 SUMMED SPIN DENSITY           0.00000000
 TOTAL ATOMIC SPINS  :
   3.8181958  -3.8178518  -3.8177334   3.8180718  -0.0002576  -0.0002576
  -0.0002576   0.0000301   0.0000301   0.0000301
 TTTTTTTTTTTTTTTTTTTTTTTTTTTTTT MOQGAD      TELAPSE     4481.67 TCPU     2207.17
 TTTTTTTTTTTTTTTTTTTTTTTTTTTTTT SHELLX      TELAPSE     4505.70 TCPU     2218.74
 TTTTTTTTTTTTTTTTTTTTTTTTTTTTTT MONMO3      TELAPSE     4507.80 TCPU     2220.19
 NUMERICALLY INTEGRATED DENSITY     76.0000261999     75.9999761018
 TTTTTTTTTTTTTTTTTTTTTTTTTTTTTT NUMDFT      TELAPSE     4599.67 TCPU     2263.81
 CYC  31 ETOT(AU) -5.505305930820E+03 DETOT -1.07E-07 tst  2.64E-07 PX  1.92E-05
 TTTTTTTTTTTTTTTTTTTTTTTTTTTTTT FDIK        TELAPSE     4616.41 TCPU     2272.18
 INSULATING STATE - TOP OF VALENCE BANDS (A.U.) -1.0000000E+00
 TTTTTTTTTTTTTTTTTTTTTTTTTTTTTT PDIG        TELAPSE     4620.44 TCPU     2274.56
 CHARGE NORMALIZATION FACTOR   1.00000000
 TOTAL ATOMIC CHARGES:
  23.9908011  23.9909983  23.9909119  23.9907148   9.3394288   9.3394288
   9.3394288   9.3394291   9.3394291   9.3394291
 SUMMED SPIN DENSITY           0.00000000
 TOTAL ATOMIC SPINS  :
   3.8181176  -3.8177731  -3.8176542   3.8179930  -0.0002577  -0.0002577
  -0.0002577   0.0000299   0.0000299   0.0000299
 TTTTTTTTTTTTTTTTTTTTTTTTTTTTTT MOQGAD      TELAPSE     4620.77 TCPU     2274.73
 TTTTTTTTTTTTTTTTTTTTTTTTTTTTTT SHELLX      TELAPSE     4639.84 TCPU     2285.47
 TTTTTTTTTTTTTTTTTTTTTTTTTTTTTT MONMO3      TELAPSE     4643.20 TCPU     2286.80
 NUMERICALLY INTEGRATED DENSITY     76.0000261991     75.9999761023
 TTTTTTTTTTTTTTTTTTTTTTTTTTTTTT NUMDFT      TELAPSE     4740.94 TCPU     2331.52
 CYC  32 ETOT(AU) -5.505305930907E+03 DETOT -8.67E-08 tst  2.14E-07 PX  1.62E-05
 TTTTTTTTTTTTTTTTTTTTTTTTTTTTTT FDIK        TELAPSE     4755.95 TCPU     2339.85
 INSULATING STATE - TOP OF VALENCE BANDS (A.U.) -1.0000000E+00
 TTTTTTTTTTTTTTTTTTTTTTTTTTTTTT PDIG        TELAPSE     4758.43 TCPU     2342.31
 CHARGE NORMALIZATION FACTOR   1.00000000
 TOTAL ATOMIC CHARGES:
  23.9908132  23.9910100  23.9909236  23.9907269   9.3394209   9.3394209
   9.3394209   9.3394212   9.3394212   9.3394212
 SUMMED SPIN DENSITY           0.00000000
 TOTAL ATOMIC SPINS  :
   3.8180512  -3.8177069  -3.8175874   3.8179261  -0.0002576  -0.0002576
  -0.0002576   0.0000300   0.0000300   0.0000300
 TTTTTTTTTTTTTTTTTTTTTTTTTTTTTT MOQGAD      TELAPSE     4758.69 TCPU     2342.48
 TTTTTTTTTTTTTTTTTTTTTTTTTTTTTT SHELLX      TELAPSE     4779.74 TCPU     2354.04
 +++ ENERGIES IN A.U. +++
 ::: EXT EL-POLE                                  -3.3480226673940E+03
 ::: EXT EL-SPHEROPOLE                             3.9192074053903E+01
 ::: BIELET ZONE E-E                               4.8406329631752E+03
 ::: TOTAL E-E                                     1.5318023698351E+03
 ::: TOTAL E-N + N-E                              -1.1332443789725E+04
 ::: TOTAL N-N                                    -9.2584175659861E+02
 ::: KINETIC ENERGY                                5.4942809224646E+03
 ::: PSEUDO TOTAL   ENERGY                        -5.2322022540241E+03
 ::: VIRIAL COEFFICIENT                            1.0244328606243E+00
 TTTTTTTTTTTTTTTTTTTTTTTTTTTTTT MONMO3      TELAPSE     4784.14 TCPU     2355.44
 NUMERICALLY INTEGRATED DENSITY     76.0000261985     75.9999761027
 TTTTTTTTTTTTTTTTTTTTTTTTTTTTTT NUMDFT      TELAPSE     4879.87 TCPU     2398.63
 CYC  33 ETOT(AU) -5.505305930979E+03 DETOT -7.18E-08 tst  1.74E-07 PX  1.62E-05

 == SCF ENDED - CONVERGENCE ON ENERGY      E(AU) -5.5053059309787E+03 CYCLES  33


 ENERGY EXPRESSION=HARTREE+FOCK EXCH*0.00000+(PBE   EXCH)*1.00000+PBE   CORR


 TOTAL ENERGY(DFT)(AU)( 33) -5.5053059309787E+03 DE-7.2E-08 tester 1.7E-07
 TTTTTTTTTTTTTTTTTTTTTTTTTTTTTT EDFT        TELAPSE     4879.87 TCPU     2398.64

 *******************************************************************************
 *                             FORCE CALCULATION                               *
 *******************************************************************************

 TTTTTTTTTTTTTTTTTTTTTTTTTTTTTT NUMDFG      TELAPSE     5712.00 TCPU     2811.03
 INFORMATION **** EXCPOG **** EXCH. BIPO BUFFER LENGTH (WORDS) =         0
 INFORMATION **** GENPOG **** BIPO BUFFER LENGTH (WORDS) =    251400
 TTTTTTTTTTTTTTTTTTTTTTTTTTTTTT SHELXG      TELAPSE     5924.85 TCPU     2917.47

 CARTESIAN FORCES (ANALYTICAL)
   ATOM                     X                   Y                   Z
   1  26             2.784913040917E-11  5.134292990761E-11  6.813026004426E-05
   2  26            -1.342227070230E-10  3.513197140611E-11 -1.467829740029E-04
   3  26             1.342641553492E-10 -3.513881778143E-11  5.586728550888E-05
   4  26            -2.785949249073E-11 -5.132605451763E-11 -1.637247401458E-04
   5   8             2.169897523407E-05  3.463227720046E-06  4.319356939595E-06
   6   8            -1.384864614029E-05  1.706035498095E-05  4.319439293948E-06
   7   8            -7.850342369387E-06 -2.052346488646E-05  4.319436106542E-06
   8   8            -1.551791816734E-05  7.673730847979E-06  5.785069933897E-05
   9   8             1.113228604918E-06 -1.727588178491E-05  5.785061706230E-05
  10   8             1.440470280967E-05  9.602033112732E-06  5.785062026063E-05

 RESULTANT FORCE     2.728720027712E-15  3.700754709190E-16  4.063624436945E-13

ATOMIC PART

 SYMMETRY ALLOWED FORCES (ANALYTICAL) (DIRECTION, FORCE)

    1  7.1815600E-05    2 -1.4765763E-04    3  4.9214229E-05    4 -1.8035880E-04
    5 -2.3880193E-05    6 -5.3029587E-05    7 -4.8626223E-05    8 -2.6877873E-05
    9  1.3291417E-05

CELL PART

 SYMMETRY ALLOWED FORCES (ANALYTICAL) (DIRECTION, FORCE)

    1  4.4983465E-04    2 -4.3747768E-05
 TTTTTTTTTTTTTTTTTTTTTTTTTTTTTT TOTGRA      TELAPSE     6004.65 TCPU     2957.38
 INFORMATION **** optc001 **** GEOMETRY OUTPUT FILE
 CLASSICAL MODEL (SCHLEGEL) USED AS INITIAL HESSIAN MATRIX
 REFERENCE GEOMETRY DEFINED

 MAX GRADIENT      0.000450  THRESHOLD              0.000450 CONVERGED YES
 RMS GRADIENT      0.000157  THRESHOLD              0.000300 CONVERGED YES

 WARNINGWARNINGWARNINGWARNINGWARNINGWARNINGWARNINGWARNINGWARNINGWARNINGWARNING

 CONVERGENCE ON GRADIENTS SATISFIED AFTER THE FIRST OPTIMIZATION CYCLE
 GEOMETRY OPTIMIZATION STOPPED

 WARNINGWARNINGWARNINGWARNINGWARNINGWARNINGWARNINGWARNINGWARNINGWARNINGWARNING


 ******************************************************************
 * OPT END - CONVERGED * E(AU):  -5.505305930979E+03  POINTS    1 *
 ******************************************************************


 NEIGHBORS OF THE NON-EQUIVALENT ATOMS

 N = NUMBER OF NEIGHBORS AT DISTANCE R
    ATOM  N     R/ANG      R/AU   NEIGHBORS (ATOM LABELS AND CELL INDICES)
   1 FE   3     1.9343     3.6553   8 O    0-1 1   9 O    1-1 0  10 O    0 0 0
   1 FE   3     2.1362     4.0368   5 O    1-1 0   6 O    0 0 0   7 O    0-1 1
   1 FE   1     2.9534     5.5810   3 FE   0-1 0
   1 FE   3     2.9782     5.6280   4 FE   1 0-1   4 FE   1-1 0   4 FE   0 0 0
   1 FE   3     3.3430     6.3173   3 FE   0 0 0   3 FE   0-1 1   3 FE   1-1 0
   1 FE   3     3.3933     6.4124   8 O    0 0 0   9 O    0-1 1  10 O    1-1 0

   2 FE   3     1.9336     3.6539   5 O    0 0 0   6 O    0 0 0   7 O    0 0 0
   2 FE   3     2.1378     4.0398   8 O   -1 0 0   9 O    0-1 0  10 O    0 0-1
   2 FE   1     2.9534     5.5810   4 FE   0 0-1
   2 FE   3     2.9791     5.6296   3 FE   0-1 0   3 FE   0 0-1   3 FE  -1 0 0
   2 FE   3     3.3430     6.3173   4 FE   0 0 0   4 FE   0 1-1   4 FE   1 0-1
   2 FE   3     3.3931     6.4121   7 O    0-1 1   5 O    1 0-1   6 O   -1 1 0

   3 FE   3     1.9337     3.6541   8 O    0 0 0   9 O    0 0 0  10 O    0 0 0
   3 FE   3     2.1373     4.0389   5 O    1 0 0   6 O    0 1 0   7 O    0 0 1
   3 FE   1     2.9534     5.5810   1 FE   0 1 0
   3 FE   3     2.9791     5.6296   2 FE   0 1 0   2 FE   0 0 1   2 FE   1 0 0
   3 FE   3     3.3430     6.3173   1 FE   0 0 0   1 FE   0 1-1   1 FE  -1 1 0
   3 FE   3     3.3935     6.4128  10 O    0 1-1   8 O   -1 0 1   9 O    1-1 0

   4 FE   3     1.9344     3.6555   5 O    0 0 0   6 O   -1 0 1   7 O    0-1 1
   4 FE   3     2.1357     4.0358   8 O   -1 0 1   9 O    0-1 1  10 O    0 0 0
   4 FE   1     2.9534     5.5810   2 FE   0 0 1
   4 FE   3     2.9782     5.6280   1 FE  -1 0 1   1 FE  -1 1 0   1 FE   0 0 0
   4 FE   3     3.3430     6.3173   2 FE   0 0 0   2 FE   0-1 1   2 FE  -1 0 1
   4 FE   3     3.3937     6.4132   5 O    0-1 1   6 O    0 0 0   7 O   -1 0 1

   5 O    1     1.9336     3.6539   2 FE   0 0 0
   5 O    1     1.9344     3.6555   4 FE   0 0 0
   5 O    1     2.1362     4.0368   1 FE  -1 1 0
   5 O    1     2.1373     4.0389   3 FE  -1 0 0
   5 O    2     2.6749     5.0548   6 O   -1 1 0   7 O   -1 0 1
   5 O    1     2.7817     5.2566   8 O   -1 0 1

   8 O    1     1.9337     3.6541   3 FE   0 0 0
   8 O    1     1.9343     3.6553   1 FE   0 1-1
   8 O    1     2.1357     4.0358   4 FE   1 0-1
   8 O    1     2.1378     4.0398   2 FE   1 0 0
   8 O    2     2.6749     5.0548   9 O    1-1 0  10 O    1 0-1
   8 O    1     2.7817     5.2566   5 O    1 0-1

 MMMMMMMMMMMMMMMMMMMMMMMMMMMMMMMMMMMMMMMMMMMMMMMMMMMMMMMMMMMMMMMMMMMMMMMMMMMMMMM
     ALPHA+BETA ELECTRONS
 MULLIKEN POPULATION ANALYSIS - NO. OF ELECTRONS  152.000000

  ATOM    Z CHARGE  A.O. POPULATION

   1 FE  26 23.991  2.000  1.920  2.057  2.057  2.057  0.384  0.674  0.674
                    0.672  0.880  0.910  0.910  0.904  0.904  1.262  0.940
                    0.940  0.940  0.468  0.349  0.349  0.349  0.267  0.281
                    0.281  0.281  0.281
   2 FE  26 23.991  2.000  1.920  2.057  2.057  2.057  0.384  0.674  0.674
                    0.672  0.880  0.910  0.910  0.904  0.904  1.262  0.940
                    0.940  0.940  0.468  0.349  0.349  0.349  0.267  0.281
                    0.281  0.281  0.281
   3 FE  26 23.991  2.000  1.920  2.057  2.057  2.057  0.384  0.674  0.674
                    0.672  0.880  0.910  0.910  0.904  0.904  1.262  0.940
                    0.940  0.940  0.468  0.349  0.349  0.349  0.267  0.281
                    0.281  0.281  0.281
   4 FE  26 23.991  2.000  1.920  2.057  2.057  2.057  0.384  0.674  0.674
                    0.672  0.880  0.910  0.910  0.904  0.904  1.262  0.940
                    0.940  0.940  0.468  0.349  0.349  0.349  0.267  0.281
                    0.281  0.281  0.281
   5 O    8  9.339  1.999  0.508  0.717  0.726  0.722  0.919  0.465  0.474
                    0.466  0.572  0.593  0.583  0.596
   6 O    8  9.339  1.999  0.508  0.730  0.713  0.722  0.919  0.478  0.461
                    0.466  0.572  0.578  0.598  0.596
   7 O    8  9.339  1.999  0.508  0.718  0.726  0.722  0.919  0.465  0.474
                    0.466  0.572  0.593  0.583  0.596
   8 O    8  9.339  1.999  0.508  0.717  0.726  0.722  0.919  0.465  0.474
                    0.466  0.572  0.593  0.583  0.596
   9 O    8  9.339  1.999  0.508  0.730  0.713  0.722  0.919  0.478  0.461
                    0.466  0.572  0.578  0.598  0.596
  10 O    8  9.339  1.999  0.508  0.718  0.726  0.722  0.919  0.465  0.474
                    0.466  0.572  0.593  0.583  0.596

  ATOM    Z CHARGE  SHELL POPULATION

   1 FE  26 23.991  2.000  8.092  2.404  4.509  4.082  1.515  1.390
   2 FE  26 23.991  2.000  8.092  2.404  4.509  4.082  1.515  1.390
   3 FE  26 23.991  2.000  8.092  2.404  4.509  4.082  1.515  1.390
   4 FE  26 23.991  2.000  8.091  2.404  4.509  4.082  1.515  1.390
   5 O    8  9.339  1.999  2.673  2.325  2.343
   6 O    8  9.339  1.999  2.673  2.325  2.343
   7 O    8  9.339  1.999  2.673  2.325  2.343
   8 O    8  9.339  1.999  2.673  2.325  2.343
   9 O    8  9.339  1.999  2.673  2.325  2.343
  10 O    8  9.339  1.999  2.673  2.325  2.343

 OVERLAP POPULATION CONDENSED TO ATOMS FOR FIRST   6 NEIGHBORS

 ATOM A   1 FE   ATOM B     CELL      R(AB)/AU R(AB)/ANG    OVPOP(AB)
                  8 O    (  0 -1  1)     3.655     1.934     0.028
                  5 O    (  1 -1  0)     4.037     2.136     0.019
                  3 FE   (  0 -1  0)     5.581     2.953     0.000
                  4 FE   (  1  0 -1)     5.628     2.978     0.000
                  3 FE   (  0  0  0)     6.317     3.343     0.000
                  8 O    (  0  0  0)     6.412     3.393     0.000

 ATOM A   2 FE   ATOM B     CELL      R(AB)/AU R(AB)/ANG    OVPOP(AB)
                  5 O    (  0  0  0)     3.654     1.934     0.028
                  8 O    ( -1  0  0)     4.040     2.138     0.019
                  4 FE   (  0  0 -1)     5.581     2.953     0.000
                  3 FE   (  0 -1  0)     5.630     2.979     0.000
                  4 FE   (  0  0  0)     6.317     3.343     0.000
                  7 O    (  0 -1  1)     6.412     3.393     0.000

 ATOM A   3 FE   ATOM B     CELL      R(AB)/AU R(AB)/ANG    OVPOP(AB)
                  8 O    (  0  0  0)     3.654     1.934     0.028
                  5 O    (  1  0  0)     4.039     2.137     0.019
                  1 FE   (  0  1  0)     5.581     2.953     0.000
                  2 FE   (  0  1  0)     5.630     2.979     0.000
                  1 FE   (  0  0  0)     6.317     3.343     0.000
                 10 O    (  0  1 -1)     6.413     3.394     0.000

 ATOM A   4 FE   ATOM B     CELL      R(AB)/AU R(AB)/ANG    OVPOP(AB)
                  5 O    (  0  0  0)     3.656     1.934     0.028
                  8 O    ( -1  0  1)     4.036     2.136     0.019
                  2 FE   (  0  0  1)     5.581     2.953     0.000
                  1 FE   ( -1  0  1)     5.628     2.978     0.000
                  2 FE   (  0  0  0)     6.317     3.343     0.000
                  5 O    (  0 -1  1)     6.413     3.394     0.000

 ATOM A   5 O    ATOM B     CELL      R(AB)/AU R(AB)/ANG    OVPOP(AB)
                  2 FE   (  0  0  0)     3.654     1.934     0.028
                  4 FE   (  0  0  0)     3.656     1.934     0.028
                  1 FE   ( -1  1  0)     4.037     2.136     0.019
                  3 FE   ( -1  0  0)     4.039     2.137     0.019
                  6 O    ( -1  1  0)     5.055     2.675    -0.025
                  8 O    ( -1  0  1)     5.257     2.782     0.001

 ATOM A   8 O    ATOM B     CELL      R(AB)/AU R(AB)/ANG    OVPOP(AB)
                  3 FE   (  0  0  0)     3.654     1.934     0.028
                  1 FE   (  0  1 -1)     3.655     1.934     0.028
                  4 FE   (  1  0 -1)     4.036     2.136     0.019
                  2 FE   (  1  0  0)     4.040     2.138     0.019
                  9 O    (  1 -1  0)     5.055     2.675    -0.025
                  5 O    (  1  0 -1)     5.257     2.782     0.001
 MMMMMMMMMMMMMMMMMMMMMMMMMMMMMMMMMMMMMMMMMMMMMMMMMMMMMMMMMMMMMMMMMMMMMMMMMMMMMMM
     ALPHA-BETA ELECTRONS
 MULLIKEN POPULATION ANALYSIS - NO. OF ELECTRONS    0.000000

  ATOM    Z CHARGE  A.O. POPULATION

   1 FE  26  3.818  0.000  0.002 -0.001 -0.001 -0.001  0.001  0.006  0.006
                    0.006  0.675  0.622  0.622  0.627  0.627  0.008  0.006
                    0.006  0.006 -0.003 -0.007 -0.007 -0.007  0.153  0.113
                    0.113  0.123  0.123
   2 FE  26 -3.818  0.000 -0.002  0.001  0.001  0.001 -0.001 -0.006 -0.006
                   -0.006 -0.675 -0.622 -0.622 -0.627 -0.627 -0.008 -0.006
                   -0.006 -0.006  0.003  0.007  0.007  0.007 -0.153 -0.113
                   -0.113 -0.123 -0.123
   3 FE  26 -3.818  0.000 -0.002  0.001  0.001  0.001 -0.001 -0.006 -0.006
                   -0.006 -0.675 -0.622 -0.622 -0.627 -0.627 -0.008 -0.006
                   -0.006 -0.006  0.003  0.007  0.007  0.007 -0.153 -0.113
                   -0.113 -0.123 -0.123
   4 FE  26  3.818  0.000  0.002 -0.001 -0.001 -0.001  0.001  0.006  0.006
                    0.006  0.675  0.622  0.622  0.627  0.627  0.008  0.006
                    0.006  0.006 -0.003 -0.007 -0.007 -0.007  0.153  0.113
                    0.113  0.123  0.123
   5 O    8  0.000  0.000  0.000 -0.001  0.001  0.000  0.000  0.007 -0.007
                    0.000  0.000 -0.017  0.017  0.000
   6 O    8  0.000  0.000  0.000  0.000  0.000  0.000  0.000  0.000  0.000
                    0.000  0.000  0.000  0.000  0.000
   7 O    8  0.000  0.000  0.000  0.001 -0.001  0.000  0.000 -0.007  0.007
                    0.000  0.000  0.017 -0.017  0.000
   8 O    8  0.000  0.000  0.000 -0.001  0.001  0.000  0.000  0.007 -0.007
                    0.000  0.000 -0.017  0.017  0.000
   9 O    8  0.000  0.000  0.000  0.000  0.000  0.000  0.000  0.000  0.000
                    0.000  0.000  0.000  0.000  0.000
  10 O    8  0.000  0.000  0.000  0.001 -0.001  0.000  0.000 -0.007  0.007
                    0.000  0.000  0.017 -0.017  0.000

  ATOM    Z CHARGE  SHELL POPULATION

   1 FE  26  3.818  0.000 -0.001  0.018  3.175  0.026 -0.026  0.626
   2 FE  26 -3.818  0.000  0.001 -0.018 -3.174 -0.026  0.026 -0.626
   3 FE  26 -3.818  0.000  0.001 -0.018 -3.174 -0.026  0.026 -0.626
   4 FE  26  3.818  0.000 -0.001  0.018  3.175  0.026 -0.026  0.626
   5 O    8  0.000  0.000  0.000  0.000  0.000
   6 O    8  0.000  0.000  0.000  0.000  0.000
   7 O    8  0.000  0.000  0.000  0.000  0.000
   8 O    8  0.000  0.000  0.000  0.000  0.000
   9 O    8  0.000  0.000  0.000  0.000  0.000
  10 O    8  0.000  0.000  0.000  0.000  0.000

 OVERLAP POPULATION CONDENSED TO ATOMS FOR FIRST   6 NEIGHBORS

 ATOM A   1 FE   ATOM B     CELL      R(AB)/AU R(AB)/ANG    OVPOP(AB)
                  8 O    (  0 -1  1)     3.655     1.934    -0.045
                  5 O    (  1 -1  0)     4.037     2.136    -0.018
                  3 FE   (  0 -1  0)     5.581     2.953     0.000
                  4 FE   (  1  0 -1)     5.628     2.978     0.000
                  3 FE   (  0  0  0)     6.317     3.343     0.000
                  8 O    (  0  0  0)     6.412     3.393     0.000

 ATOM A   2 FE   ATOM B     CELL      R(AB)/AU R(AB)/ANG    OVPOP(AB)
                  5 O    (  0  0  0)     3.654     1.934     0.045
                  8 O    ( -1  0  0)     4.040     2.138     0.017
                  4 FE   (  0  0 -1)     5.581     2.953     0.000
                  3 FE   (  0 -1  0)     5.630     2.979     0.000
                  4 FE   (  0  0  0)     6.317     3.343     0.000
                  7 O    (  0 -1  1)     6.412     3.393     0.000

 ATOM A   3 FE   ATOM B     CELL      R(AB)/AU R(AB)/ANG    OVPOP(AB)
                  8 O    (  0  0  0)     3.654     1.934     0.045
                  5 O    (  1  0  0)     4.039     2.137     0.018
                  1 FE   (  0  1  0)     5.581     2.953     0.000
                  2 FE   (  0  1  0)     5.630     2.979     0.000
                  1 FE   (  0  0  0)     6.317     3.343     0.000
                 10 O    (  0  1 -1)     6.413     3.394     0.000

 ATOM A   4 FE   ATOM B     CELL      R(AB)/AU R(AB)/ANG    OVPOP(AB)
                  5 O    (  0  0  0)     3.656     1.934    -0.045
                  8 O    ( -1  0  1)     4.036     2.136    -0.018
                  2 FE   (  0  0  1)     5.581     2.953     0.000
                  1 FE   ( -1  0  1)     5.628     2.978     0.000
                  2 FE   (  0  0  0)     6.317     3.343     0.000
                  5 O    (  0 -1  1)     6.413     3.394     0.000

 ATOM A   5 O    ATOM B     CELL      R(AB)/AU R(AB)/ANG    OVPOP(AB)
                  2 FE   (  0  0  0)     3.654     1.934     0.045
                  4 FE   (  0  0  0)     3.656     1.934    -0.045
                  1 FE   ( -1  1  0)     4.037     2.136    -0.018
                  3 FE   ( -1  0  0)     4.039     2.137     0.018
                  6 O    ( -1  1  0)     5.055     2.675     0.000
                  8 O    ( -1  0  1)     5.257     2.782    -0.004

 ATOM A   8 O    ATOM B     CELL      R(AB)/AU R(AB)/ANG    OVPOP(AB)
                  3 FE   (  0  0  0)     3.654     1.934     0.045
                  1 FE   (  0  1 -1)     3.655     1.934    -0.045
                  4 FE   (  1  0 -1)     4.036     2.136    -0.018
                  2 FE   (  1  0  0)     4.040     2.138     0.017
                  9 O    (  1 -1  0)     5.055     2.675     0.000
                  5 O    (  1  0 -1)     5.257     2.782    -0.004
 EIGENVECTORS IN FORTRAN UNIT 10

 FINAL OPTIMIZED GEOMETRY - DIMENSIONALITY OF THE SYSTEM      3
 (NON PERIODIC DIRECTION: LATTICE PARAMETER FORMALLY SET TO 500)
 *******************************************************************************
 LATTICE PARAMETERS (ANGSTROMS AND DEGREES) - BOHR = 0.5291772083 ANGSTROM
 PRIMITIVE CELL - CENTRING CODE 7/0 VOLUME=   101.072440 - DENSITY 5.253 g/cm^3
         A              B              C           ALPHA      BETA       GAMMA 
     5.44533688     5.44533688     5.44533688    55.067417  55.067417  55.067417
 *******************************************************************************
 ATOMS IN THE ASYMMETRIC UNIT    6 - ATOMS IN THE UNIT CELL:   10
     ATOM              X/A                 Y/B                 Z/C    
 *******************************************************************************
   1 T  26 FE    3.568442544033E-01  3.568442544034E-01  3.568442544034E-01
   2 T  26 FE1  -1.430195921397E-01 -1.430195921402E-01 -1.430195921402E-01
   3 T  26 FE1   1.430507305437E-01  1.430507305442E-01  1.430507305442E-01
   4 T  26 FE   -3.568128970553E-01 -3.568128970554E-01 -3.568128970554E-01
   5 T   8 O    -4.432426672372E-01 -5.675473583976E-02  2.500171301010E-01
   6 F   8 O     2.500171301009E-01 -4.432426672377E-01 -5.675473583908E-02
   7 F   8 O    -5.675473583905E-02  2.500171301013E-01 -4.432426672381E-01
   8 T   8 O     4.431926399190E-01  5.670362957970E-02 -2.499784922748E-01
   9 F   8 O    -2.499784922746E-01  4.431926399195E-01  5.670362957903E-02
  10 F   8 O     5.670362957900E-02 -2.499784922750E-01  4.431926399200E-01

 TRANSFORMATION MATRIX PRIMITIVE-CRYSTALLOGRAPHIC CELL
  1.0000  0.0000  1.0000 -1.0000  1.0000  1.0000  0.0000 -1.0000  1.0000

 *******************************************************************************
 CRYSTALLOGRAPHIC CELL (VOLUME=        303.21732051)
         A              B              C           ALPHA      BETA       GAMMA 
     5.03443590     5.03443590    13.81407288    90.000000  90.000000 120.000000

 COORDINATES IN THE CRYSTALLOGRAPHIC CELL
     ATOM              X/A                 Y/B                 Z/C    
 *******************************************************************************
   1 T  26 FE    3.333333333333E-01 -3.333333333334E-01  2.351092107004E-02
   2 T  26 FE1   3.280373217113E-13  1.640186608557E-13 -1.430195921400E-01
   3 T  26 FE1  -3.280952644370E-13 -1.640476322185E-13  1.430507305440E-01
   4 T  26 FE   -3.333333333333E-01  3.333333333334E-01 -2.347956372200E-02
   5 T   8 O    -3.599159095786E-01 -3.333438877597E-01 -8.332675765863E-02
   6 F   8 O     3.333438877595E-01 -2.657202181955E-02 -8.332675765863E-02
   7 F   8 O     2.657202181958E-02  3.599159095795E-01 -8.332675765863E-02
   8 T   8 O     3.598867141777E-01  3.332844180161E-01  8.330592574131E-02
   9 F   8 O    -3.332844180159E-01  2.660229616228E-02  8.330592574131E-02
  10 F   8 O    -2.660229616232E-02 -3.598867141786E-01  8.330592574131E-02

 T = ATOM BELONGING TO THE ASYMMETRIC UNIT
 INFORMATION **** fort.34 **** GEOMETRY OUTPUT FILE

 DIRECT LATTICE VECTORS CARTESIAN COMPONENTS (ANGSTROM)
          X                    Y                    Z
   0.290663292155E+01   0.000000000000E+00   0.460469095849E+01
  -0.145331646077E+01   0.251721794953E+01   0.460469095849E+01
  -0.145331646077E+01  -0.251721794953E+01   0.460469095849E+01


 CARTESIAN COORDINATES - PRIMITIVE CELL
 *******************************************************************************
 *      ATOM          X(ANGSTROM)         Y(ANGSTROM)         Z(ANGSTROM)
 *******************************************************************************
   1    26 FE    1.453316460773E+00 -2.517217949530E+00  3.247815770310E-01
   2    26 FE1   5.875047207615E-17  0.000000000000E+00 -1.975683068442E+00
   3    26 FE1   0.000000000000E+00  0.000000000000E+00  1.976113216624E+00
   4    26 FE   -1.453316460773E+00 -2.517217949530E+00 -3.243484043400E-01
   5     8 O    -1.569215147655E+00 -7.722116473570E-01 -1.151081902773E+00
   6     8 O     1.453362477537E+00 -9.728743581934E-01 -1.151081902773E+00
   7     8 O     1.158526701184E-01  1.745086005550E+00 -1.151081902773E+00
   8     8 O     1.569087857185E+00  7.719857419320E-01  1.150794129149E+00
   9     8 O    -1.453103192465E+00  9.728770741252E-01  1.150794129149E+00
  10     8 O    -1.159846647203E-01 -1.744862816057E+00  1.150794129149E+00

 ****   3 SYMMOPS - TRANSLATORS IN FRACTIONARY UNITS
  V INV                   ROTATION MATRICES                       TRANSLATOR
  1  1  1.00  0.00  0.00  0.00  1.00  0.00  0.00  0.00  1.00    0.00  0.00  0.00
  2  3  0.00  0.00  1.00  1.00  0.00  0.00  0.00  1.00  0.00    0.00  0.00  0.00
  3  2  0.00  1.00  0.00  0.00  0.00  1.00  1.00  0.00  0.00    0.00  0.00  0.00
 TTTTTTTTTTTTTTTTTTTTTTTTTTTTTT END         TELAPSE     6005.13 TCPU     2957.81
 EEEEEEEEEE TERMINATION  DATE 23 02 2009 TIME 11:52:25.2
NODE    0 CPU TIME =      2957.810
NODE    1 CPU TIME =      2975.880
    TOTAL CPU TIME =      5933.690
FORTRAN STOP
FORTRAN STOP
Mon Feb 23 11:52:25 GMT 2009
