/home/piero/bin/CRY06/Pcrystal_intel.181007
/scr/piero/CRY_data/tmp_p27409
HEMATITE PBE XLGRID 
EXTERNAL
MODISYMM
4
1 1 2 -1 3 -1 4 1
OPTGEOM
FULLOPTG
END
ENDG
26 7
0 0 8 2.0 1.0
 315379.0     0.0002275.10052905
  45690.0     0.0019
   9677.3     0.0111
   2520.88    0.0501
    759.746   0.1705
    262.964   0.36924
    102.801   0.4033
     42.9733  0.1434
0 1 6 8.0 1.0
    798.262  -0.0052  0.00850
    191.162  -0.068   0.0608
     63.6885 -0.1314  0.2114
     25.3625  0.2517  0.3944
     10.7338  0.6433  0.398
      3.764   0.2825  0.2251
0 1 4 8.0 1.0
     48.1434  0.0122 -0.0215
     17.4579 -0.2278 -0.085
      6.9972 -0.8801  0.201
      3.0791  0.9755  1.3024
0 3 4 5.0 1.0
     30.4821  0.0583
      8.692   0.2591
      3.1008  0.5162
      1.1709  0.5656
0 1 1 0.0 1.0
      1.3137  1.0     1.0
0 1 1 0.0 1.0
      0.5625  1.0     1.0
0 3 1 0.0 1.0
      0.4345  1.0   
8 4
0 0 8 2.0 1.0
 8020.0    0.00108
 1338.0    0.00804
  255.4    0.05324
   69.22   0.1681
   23.90   0.3581
    9.264  0.3855
    3.851  0.1468
    1.212  0.0728
0 1 4 8.0 1.0
   49.43  -0.00883 0.00958
   10.47  -0.0915  0.0696
    3.235 -0.0402  0.2065
    1.217  0.379   0.347
0 1 1 0.0 1.0
    0.5    1.0     1.0
0 1 1 0.0 1.0
    0.191  1.0     1.0
99 0
ENDB
DFT
SPIN
EXCHANGE
PBE
CORRELAT
PBE
XLGRID
END
SHRINK
6 6
SCFDIR
ATOMSPIN
4 
1 1 2 -1 3 -1 4 1
SPINLOCK
0  50 
LEVSHIFT
3 1
FMIXING
60
MAXCYCLE
700
PPAN
END
Thu Feb 19 08:43:14 GMT 2009
 PROCESS             0  OF             2  WORKING
 
         
 *******************************************************************************
 *                                                                             *
 *                                CRYSTAL06                                    *
 *                          Release 1.0 - v1_0_2
                            Sequential executable                              *
 *                                                                             *
 *                          Built  17 Oct 2007 18:00                           *
 *                          Xmake: Linux-pgf_p7_mpich_1.2.7.fedora5_2.6        *
 *                          Compiled on: olidata1.ch.unito.it                  *
 *                                                                             *
 *                              MAIN AUTHORS                                   *
 *                                                                             *
 *    R. DOVESI(1,10), V.R. SAUNDERS(2), C. ROETTI(1,10), R. ORLANDO (1,3),    *
 *  C.M. ZICOVICH-WILSON(1,4), F. PASCALE(5), B. CIVALLERI(1,10), K. DOLL(6),  *
 *       N.M. HARRISON(2,7), I. J. BUSH(2), Ph. D'ARCO(8), M. LLUNELL(9)       *
 *                                                                             *
 * (1) THEORETICAL CHEMISTRY GROUP - UNIVERSITA' DI TORINO - TORINO (ITALY)    *
 *      http://www.crystal.unito.it                                            *
 * (2) COMPUTATIONAL SCIENCE & ENGINEERING DEPARTMENT - CCLRC DARESBURY (UK)   *
 *     http://www.cse.clrc.ac.uk/cmg/CRYSTAL/                                  *
 * (3) UNIVERSITA' DEL PIEMONTE ORIENTALE - ALESSANDRIA (ITALY)                *
 * (4) UNIVERSIDAD AUTONOMA DEL ESTADO DE MORELOS - CUERNAVACA (MEXICO)        *
 * (5) UNIVERSITE' HENRI POINCARE' - NANCY (FRANCE)                            *
 * (6) MPI FUER FESTKOERPERFORSCHUNG - STUTTGART (GERMANY)                     *
 * (7) IMPERIAL COLLEGE - LONDON (UK)                                          *
 * (8) UNIVERSITE' PIERRE ET MARIE CURIE - PARIS (FRANCE)                      *
 * (9) UNIVERSIDAD DE BARCELONA - BARCELONA (SPAIN)                            *
 *(10) NIS - NANOSTRUCTURED INTERFACES AND SURFACES - TORINO (ITALY)           *
 *     http://www.crystal.unito.it                                             *
 *******************************************************************************
 EEEEEEEEEE STARTING  DATE 19 02 2009 TIME 08:43:21.4
 HEMATITE PBE XLGRID                                                             

 GEOMETRY INPUT FROM EXTERNAL FILE (FORTRAN UNIT 34)
 3D - CRYSTAL 

 *******************************************************************************
 LATTICE PARAMETERS  (ANGSTROMS AND DEGREES) - PRIMITIVE CELL
       A          B          C         ALPHA      BETA     GAMMA        VOLUME
    5.45112    5.45112    5.45112     54.9269   54.9269   54.9269     101.01238

 NUMBER OF IRREDUCIBLE ATOMS IN THE CELL:    6

 CARTESIAN COORDINATES (ANGSTROM) - IRREDUCIBLE ATOMS AND SYMMETRY RELATED

 AT.IRR.  AT  AT.N.          X                   Y                   Z
     1     1    26   -2.902869760546E+00  0.000000000000E+00  3.234575441860E-01
     2     2    26    4.000000000000E-12  1.000000000000E-12 -1.975554287535E+00
     3     3    26    0.000000000000E+00  0.000000000000E+00  1.977018914275E+00
     4     4    26    2.902869760546E+00  0.000000000000E+00 -3.222870453070E-01
     5     5     8   -1.567625136499E+00 -7.751625524570E-01 -1.156658363782E+00
     5     6     8    1.455123030739E+00 -9.700219155900E-01 -1.156658363782E+00
     5     7     8    1.125021057597E-01  1.745184468047E+00 -1.156658363782E+00
     6     8     8    1.567275662575E+00  7.747204029700E-01  1.155779988576E+00
     6     9     8   -1.454565381089E+00  9.699403370374E-01  1.155779988576E+00
     6    10     8   -1.127102814857E-01 -1.744660740007E+00  1.155779988576E+00

 NUMBER OF SYMMETRY OPERATORS         :    3
 *******************************************************************************
 LATTICE PARAMETERS (ANGSTROMS AND DEGREES) - BOHR = 0.5291772083 ANGSTROM
 PRIMITIVE CELL - CENTRING CODE 7/0 VOLUME=   101.012383 - DENSITY 5.256 g/cm^3
         A              B              C           ALPHA      BETA       GAMMA 
     5.45111661     5.45111661     5.45111661    54.926862  54.926862  54.926862
 *******************************************************************************
 ATOMS IN THE ASYMMETRIC UNIT    6 - ATOMS IN THE UNIT CELL:   10
     ATOM              X/A                 Y/B                 Z/C    
 *******************************************************************************
   1 T  26 FE    3.567017023182E-01  3.567017023181E-01  3.567017023181E-01
   2 T  26 FE   -1.427250109635E-01 -1.427250109652E-01 -1.427250109656E-01
   3 T  26 FE    1.428308237324E-01  1.428308237329E-01  1.428308237329E-01
   4 T  26 FE   -3.566171389800E-01 -3.566171389799E-01 -3.566171389799E-01
   5 T   8 O    -4.435807538363E-01 -5.772643705145E-02  2.506169233084E-01
   6 F   8 O     2.506169233085E-01 -4.435807538365E-01 -5.772643705140E-02
   7 F   8 O    -5.772643705102E-02  2.506169233083E-01 -4.435807538367E-01
   8 T   8 O     4.434370357237E-01  5.761516917132E-02 -2.505523134218E-01
   9 F   8 O    -2.505523134219E-01  4.434370357239E-01  5.761516917127E-02
  10 F   8 O     5.761516917089E-02 -2.505523134217E-01  4.434370357240E-01

 TRANSFORMATION MATRIX PRIMITIVE-CRYSTALLOGRAPHIC CELL
  1.0000  0.0000  1.0000 -1.0000  1.0000  1.0000  0.0000 -1.0000  1.0000

 *******************************************************************************
 CRYSTALLOGRAPHIC CELL (VOLUME=        303.03714969)
         A              B              C           ALPHA      BETA       GAMMA 
     5.02791791     5.02791791    13.84168251    90.000000  90.000000 120.000000

 COORDINATES IN THE CRYSTALLOGRAPHIC CELL
     ATOM              X/A                 Y/B                 Z/C    
 *******************************************************************************
   1 T  26 FE    3.333333333334E-01 -3.333333333333E-01  2.336836898478E-02
   2 T  26 FE    1.246410317014E-12  8.220946426431E-13 -1.427250109647E-01
   3 T  26 FE   -3.280221466630E-13 -1.640110733315E-13  1.428308237328E-01
   4 T  26 FE   -3.333333333334E-01  3.333333333333E-01 -2.328380564658E-02
   5 T   8 O    -3.600173313099E-01 -3.341803458348E-01 -8.356342252646E-02
   6 F   8 O     3.341803458350E-01 -2.583698547506E-02 -8.356342252646E-02
   7 F   8 O     2.583698547544E-02  3.600173313102E-01 -8.356342252646E-02
   8 T   8 O     3.599370718993E-01  3.340522772462E-01  8.349996382442E-02
   9 F   8 O    -3.340522772463E-01  2.588479465315E-02  8.349996382442E-02
  10 F   8 O    -2.588479465353E-02 -3.599370718996E-01  8.349996382442E-02

 T = ATOM BELONGING TO THE ASYMMETRIC UNIT
 *******************************************************************************
 * GEOMETRY EDITING - INPUT COORDINATES ARE GIVEN IN ANGSTROM          
 *******************************************************************************

 GEOMETRY NOW FULLY CONSISTENT WITH THE GROUP
 SSSSSSSSSSSSSSSSSSSSSSSSSSSSSSSSSSSSSSSSSSSSSSSSSSSSSSSSSSSSSSSSSSSSSSSSSSSSSS
 REDUCTION OF SYMMETRY - ATOMIC LABELS SET TO (ATOM, AT. N., LABEL)
   1( 26) 1;   2( 26)-1;   3( 26)-1;   4( 26) 1;   5(  8) 0;   6(  8) 0;
   7(  8) 0;   8(  8) 0;   9(  8) 0;  10(  8) 0;
 WARNING **** MODSYM **** GEOMETRICAL SYMMETRY NOT REDUCED
 *******************************************************************************
 COMBINED CELL/ATOM OPTIMIZATION CONTROL

 MAXIMUM GRADIENT COMPONENT   0.00045 MAXIMUM DISPLACEMENT COMPONENT     0.00030
 R.M.S. OF GRADIENT COMPONENT 0.00180 R.M.S. OF DISPLACEMENT COMPONENTS  0.00120
 THRESHOLD ON ENERGY CHANGE 0.100E-06 EXTRAPOLATING POLYNOMIAL ORDER           2
 MAXIMUM ALLOWED NUMBER OF STEPS  100 SORTING OF ENERGY POINTS:               NO
 ANALYTICAL  GRADIENT                 HESSIAN UPDATING                      BFGS
 STEP SIZE NUMERICAL GRADIENT 0.00100
 INITIAL HESSIAN MATRIX: SCHLEGEL MODEL 2
 *******************************************************************************


 GCALCO - MAX INDICES DIRECT LATTICE VECTOR  14  14  14
 NO.OF VECTORS CREATED 6999 STARS  521 RMAX   104.65134 BOHR

 GEOMETRY FOR WAVE FUNCTION - DIMENSIONALITY OF THE SYSTEM    3
 (NON PERIODIC DIRECTION: LATTICE PARAMETER FORMALLY SET TO 500)
 *******************************************************************************
 LATTICE PARAMETERS (ANGSTROMS AND DEGREES) - BOHR = 0.5291772083 ANGSTROM
 PRIMITIVE CELL - CENTRING CODE 7/0 VOLUME=   101.012383 - DENSITY 5.256 g/cm^3
         A              B              C           ALPHA      BETA       GAMMA 
     5.45111661     5.45111661     5.45111661    54.926862  54.926862  54.926862
 *******************************************************************************
 ATOMS IN THE ASYMMETRIC UNIT    6 - ATOMS IN THE UNIT CELL:   10
     ATOM              X/A                 Y/B                 Z/C    
 *******************************************************************************
   1 T  26 FE    3.567017023181E-01  3.567017023181E-01  3.567017023181E-01
   2 T  26 FE1  -1.427250109644E-01 -1.427250109649E-01 -1.427250109649E-01
   3 T  26 FE1   1.428308237324E-01  1.428308237329E-01  1.428308237329E-01
   4 T  26 FE   -3.566171389799E-01 -3.566171389799E-01 -3.566171389799E-01
   5 T   8 O    -4.435807538363E-01 -5.772643705145E-02  2.506169233084E-01
   6 F   8 O     2.506169233085E-01 -4.435807538365E-01 -5.772643705140E-02
   7 F   8 O    -5.772643705102E-02  2.506169233083E-01 -4.435807538367E-01
   8 T   8 O     4.434370357237E-01  5.761516917132E-02 -2.505523134218E-01
   9 F   8 O    -2.505523134219E-01  4.434370357239E-01  5.761516917127E-02
  10 F   8 O     5.761516917089E-02 -2.505523134217E-01  4.434370357240E-01

 TRANSFORMATION MATRIX PRIMITIVE-CRYSTALLOGRAPHIC CELL
  1.0000  0.0000  1.0000 -1.0000  1.0000  1.0000  0.0000 -1.0000  1.0000

 *******************************************************************************
 CRYSTALLOGRAPHIC CELL (VOLUME=        303.03714969)
         A              B              C           ALPHA      BETA       GAMMA 
     5.02791791     5.02791791    13.84168251    90.000000  90.000000 120.000000

 COORDINATES IN THE CRYSTALLOGRAPHIC CELL
     ATOM              X/A                 Y/B                 Z/C    
 *******************************************************************************
   1 T  26 FE    3.333333333333E-01 -3.333333333334E-01  2.336836898478E-02
   2 T  26 FE1   3.277744814186E-13  1.638872407093E-13 -1.427250109647E-01
   3 T  26 FE1  -3.280174952577E-13 -1.640087476288E-13  1.428308237328E-01
   4 T  26 FE   -3.333333333333E-01  3.333333333334E-01 -2.328380564658E-02
   5 T   8 O    -3.600173313099E-01 -3.341803458348E-01 -8.356342252646E-02
   6 F   8 O     3.341803458350E-01 -2.583698547506E-02 -8.356342252646E-02
   7 F   8 O     2.583698547544E-02  3.600173313102E-01 -8.356342252646E-02
   8 T   8 O     3.599370718993E-01  3.340522772462E-01  8.349996382442E-02
   9 F   8 O    -3.340522772463E-01  2.588479465315E-02  8.349996382442E-02
  10 F   8 O    -2.588479465353E-02 -3.599370718996E-01  8.349996382442E-02

 T = ATOM BELONGING TO THE ASYMMETRIC UNIT

 ****   3 SYMMOPS - TRANSLATORS IN FRACTIONARY UNITS
  V INV                   ROTATION MATRICES                       TRANSLATOR
  1  1  1.00  0.00  0.00  0.00  1.00  0.00  0.00  0.00  1.00    0.00  0.00  0.00
  2  3  0.00  0.00  1.00  1.00  0.00  0.00  0.00  1.00  0.00    0.00  0.00  0.00
  3  2  0.00  1.00  0.00  0.00  0.00  1.00  1.00  0.00  0.00    0.00  0.00  0.00

 DIRECT LATTICE VECTORS CARTESIAN COMPONENTS (ANGSTROM)
          X                    Y                    Z
   0.290286976055E+01   0.000000000000E+00   0.461389416889E+01
  -0.145143488027E+01   0.251395895651E+01   0.461389416889E+01
  -0.145143488027E+01  -0.251395895651E+01   0.461389416889E+01


 CARTESIAN COORDINATES - PRIMITIVE CELL
 *******************************************************************************
 *      ATOM          X(ANGSTROM)         Y(ANGSTROM)         Z(ANGSTROM)
 *******************************************************************************
   1    26 FE   -2.902869760547E+00  0.000000000000E+00  3.234575441860E-01
   2    26 FE1  -5.875047207615E-17  0.000000000000E+00 -1.975554287535E+00
   3    26 FE1   5.875047207615E-17  0.000000000000E+00  1.977018914275E+00
   4    26 FE    2.902869760547E+00  0.000000000000E+00 -3.222870453070E-01
   5     8 O    -1.567625136499E+00 -7.751625524570E-01 -1.156658363782E+00
   6     8 O     1.455123030739E+00 -9.700219155900E-01 -1.156658363782E+00
   7     8 O     1.125021057597E-01  1.745184468047E+00 -1.156658363782E+00
   8     8 O     1.567275662575E+00  7.747204029700E-01  1.155779988576E+00
   9     8 O    -1.454565381089E+00  9.699403370374E-01  1.155779988576E+00
  10     8 O    -1.127102814857E-01 -1.744660740007E+00  1.155779988576E+00

 *******************************************************************************
 LOCAL ATOMIC FUNCTIONS BASIS SET
 *******************************************************************************
   ATOM  X(AU)  Y(AU)  Z(AU)    NO. TYPE  EXPONENT  S COEF   P COEF   D/F/G COEF
 *******************************************************************************
   1 FE -5.486  0.000  0.611
                                  1 S  
                                         3.154E+05 2.275E-04 0.000E+00 0.000E+00
                                         4.569E+04 1.900E-03 0.000E+00 0.000E+00
                                         9.677E+03 1.110E-02 0.000E+00 0.000E+00
                                         2.521E+03 5.010E-02 0.000E+00 0.000E+00
                                         7.597E+02 1.705E-01 0.000E+00 0.000E+00
                                         2.630E+02 3.692E-01 0.000E+00 0.000E+00
                                         1.028E+02 4.033E-01 0.000E+00 0.000E+00
                                         4.297E+01 1.434E-01 0.000E+00 0.000E+00
                             2-   5 SP 
                                         7.983E+02-5.200E-03 8.500E-03 0.000E+00
                                         1.912E+02-6.800E-02 6.080E-02 0.000E+00
                                         6.369E+01-1.314E-01 2.114E-01 0.000E+00
                                         2.536E+01 2.517E-01 3.944E-01 0.000E+00
                                         1.073E+01 6.433E-01 3.980E-01 0.000E+00
                                         3.764E+00 2.825E-01 2.251E-01 0.000E+00
                             6-   9 SP 
                                         4.814E+01 1.220E-02-2.150E-02 0.000E+00
                                         1.746E+01-2.278E-01-8.500E-02 0.000E+00
                                         6.997E+00-8.801E-01 2.010E-01 0.000E+00
                                         3.079E+00 9.755E-01 1.302E+00 0.000E+00
                            10-  14 D  
                                         3.048E+01 0.000E+00 0.000E+00 5.830E-02
                                         8.692E+00 0.000E+00 0.000E+00 2.591E-01
                                         3.101E+00 0.000E+00 0.000E+00 5.162E-01
                                         1.171E+00 0.000E+00 0.000E+00 5.656E-01
                            15-  18 SP 
                                         1.314E+00 1.000E+00 1.000E+00 0.000E+00
                            19-  22 SP 
                                         5.625E-01 1.000E+00 1.000E+00 0.000E+00
                            23-  27 D  
                                         4.345E-01 0.000E+00 0.000E+00 1.000E+00
   2 FE  0.000  0.000 -3.733
   3 FE  0.000  0.000  3.736
   4 FE  5.486  0.000 -0.609
   5 O  -2.962 -1.465 -2.186
                                109 S  
                                         8.020E+03 1.080E-03 0.000E+00 0.000E+00
                                         1.338E+03 8.040E-03 0.000E+00 0.000E+00
                                         2.554E+02 5.324E-02 0.000E+00 0.000E+00
                                         6.922E+01 1.681E-01 0.000E+00 0.000E+00
                                         2.390E+01 3.581E-01 0.000E+00 0.000E+00
                                         9.264E+00 3.855E-01 0.000E+00 0.000E+00
                                         3.851E+00 1.468E-01 0.000E+00 0.000E+00
                                         1.212E+00 7.280E-02 0.000E+00 0.000E+00
                           110- 113 SP 
                                         4.943E+01-8.830E-03 9.580E-03 0.000E+00
                                         1.047E+01-9.150E-02 6.960E-02 0.000E+00
                                         3.235E+00-4.020E-02 2.065E-01 0.000E+00
                                         1.217E+00 3.790E-01 3.470E-01 0.000E+00
                           114- 117 SP 
                                         5.000E-01 1.000E+00 1.000E+00 0.000E+00
                           118- 121 SP 
                                         1.910E-01 1.000E+00 1.000E+00 0.000E+00
   6 O   2.750 -1.833 -2.186
   7 O   0.213  3.298 -2.186
   8 O   2.962  1.464  2.184
   9 O  -2.749  1.833  2.184
  10 O  -0.213 -3.297  2.184
 INFORMATION **** READM2 **** FULL DIRECT SCF (MONO AND BIEL INT) SELECTED
 SSSSSSSSSSSSSSSSSSSSSSSSSSSSSSSSSSSSSSSSSSSSSSSSSSSSSSSSSSSSSSSSSSSSSSSSSSSSSS
 ATOMIC SPINS SET TO (ATOM, AT. N., SPIN)
   1  26 1   2  26-1   3  26-1   4  26 1   5   8 0   6   8 0   7   8 0   8   8 0
   9   8 0  10   8 0
 ALPHA-BETA ELECTRONS LOCKED TO   0 FOR  50 SCF CYCLES
 INFORMATION **** MAXCYCLE **** MAX NUMBER OF SCF CYCLES SET TO       700
 INFORMATION **** PPAN ****  MULLIKEN POPULATION ANALYSIS AT THE END OF SCF
 *******************************************************************************
 N. OF ATOMS PER CELL       10  COULOMB OVERLAP TOL         (T1) 10** -6
 NUMBER OF SHELLS           52  COULOMB PENETRATION TOL     (T2) 10** -6
 NUMBER OF AO              186  EXCHANGE OVERLAP TOL        (T3) 10** 20
 N. OF ELECTRONS PER CELL  152  EXCHANGE PSEUDO OVP (F(G))  (T4) 10** 20
 CORE ELECTRONS PER CELL    84  EXCHANGE PSEUDO OVP (P(G))  (T5) 10** 20
 N. OF SYMMETRY OPERATORS    3  POLE ORDER IN MONO ZONE                4
 *******************************************************************************
 TYPE OF CALCULATION :  UNRESTRICTED OPEN SHELL
 KOHN-SHAM HAMILTONIAN

 (EXCHANGE)[CORRELATION] FUNCTIONAL:(PERDEW-BURKE-ERNZERHOF)[PERDEW-BURKE-ERNZERHOF]


 SPIN POLARIZED DFT SELECTED
 EIGENVALUE LEVEL SHIFTING OF  0.300 HARTREE
 LOCKING - FERMI ENERGY ALTERED BY LEVEL SHIFTER

 CAPPA: IS1=  6 IS2=  6 IS3=  6K POINTS MONKHORST NET   40 SYMMOPS K SPACE  6 SYMMOPS G SPACE  3


 CAPPA1: ISJ1=  6 ISJ2=  6 ISJ3=  6K POINTS GILAT NET   40 SYMMOPS K SPACE  6 SYMMOPS G SPACE  3

 *******************************************************************************
 MAX NUMBER OF SCF CYCLES     700  CONVERGENCE ON DELTAP        10**-16
 WEIGHT OF F(I) IN F(I+1)      60% CONVERGENCE ON ENERGY        10**- 7
 EIGENVALUE LEVEL SHIFTING OF  0.300 HARTREE
 LOCKING - FERMI ENERGY ALTERED BY LEVEL SHIFTER
 SHRINK. FACT.(MONKH.)    6  6  6  NUMBER OF K POINTS IN THE IBZ     40
 SHRINKING FACTOR(GILAT NET)    6  NUMBER OF K POINTS(GILAT NET)     40
 *******************************************************************************
 *** K POINTS COORDINATES (OBLIQUE COORDINATES IN UNITS OF IS =  6)
   1-R(  0  0  0)   2-C(  1  0  0)   3-C(  2  0  0)   4-R(  3  0  0)
   5-C(  1  1  0)   6-C(  2  1  0)   7-C(  3  1  0)   8-C(  4  1  0)
   9-C(  5  1  0)  10-C(  1  2  0)  11-C(  2  2  0)  12-C(  3  2  0)
  13-C(  4  2  0)  14-C(  5  2  0)  15-C(  1  3  0)  16-C(  2  3  0)
  17-R(  3  3  0)  18-C(  1  1  1)  19-C(  2  1  1)  20-C(  3  1  1)
  21-C(  4  1  1)  22-C(  5  1  1)  23-C(  2  2  1)  24-C(  3  2  1)
  25-C(  4  2  1)  26-C(  5  2  1)  27-C(  2  3  1)  28-C(  3  3  1)
  29-C(  4  3  1)  30-C(  5  3  1)  31-C(  2  4  1)  32-C(  3  4  1)
  33-C(  4  4  1)  34-C(  5  4  1)  35-C(  2  2  2)  36-C(  3  2  2)
  37-C(  4  2  2)  38-C(  3  3  2)  39-C(  4  3  2)  40-R(  3  3  3)

 DIRECT LATTICE VECTORS COMPON. (A.U.)     RECIP. LATTICE VECTORS COMPON. (A.U.) 
        X            Y            Z              X            Y            Z
    5.4856288    0.0000000    8.7189964      0.7635934    0.0000000    0.2402106
   -2.7428144    4.7506939    8.7189964     -0.3817967    0.6612913    0.2402106
   -2.7428144   -4.7506939    8.7189964     -0.3817967   -0.6612913    0.2402106

 DISK SPACE FOR EIGENVECTORS (FTN 10)    2629296 REALS

 SYMMETRY ADAPTION OF THE BLOCH FUNCTIONS ENABLED
 TTTTTTTTTTTTTTTTTTTTTTTTTTTTTT gordsh1     TELAPSE        1.33 TCPU        0.01

 DIMENSIONS  P(G)=   74722 F(G)=   37598 P(G),F(G) (IRR)   14414
 MAX G-VECTOR INDEX FOR 1- AND 2-ELECTRON INTEGRALS  37

 TTTTTTTTTTTTTTTTTTTTTTTTTTTTTT INPUT       TELAPSE        1.35 TCPU        0.01

 NEIGHBORS OF THE NON-EQUIVALENT ATOMS

 N = NUMBER OF NEIGHBORS AT DISTANCE R
    ATOM  N     R/ANG      R/AU   NEIGHBORS (ATOM LABELS AND CELL INDICES)
   1 FE   3     1.9316     3.6502   8 O   -1 0 1   9 O    0 0 0  10 O   -1 1 0
   1 FE   3     2.1388     4.0418   5 O    0 0 0   6 O   -1 1 0   7 O   -1 0 1
   1 FE   1     2.9603     5.5942   3 FE  -1 0 0
   1 FE   3     2.9738     5.6197   4 FE  -1 0 1   4 FE  -1 1 0   4 FE  -2 1 1
   1 FE   3     3.3408     6.3132   3 FE   0 0 0   3 FE  -1 0 1   3 FE  -1 1 0
   1 FE   3     3.3943     6.4144   8 O   -1 1 0   9 O   -1 0 1  10 O    0 0 0

   2 FE   3     1.9310     3.6491   5 O    0 0 0   6 O    0 0 0   7 O    0 0 0
   2 FE   3     2.1406     4.0451   8 O   -1 0 0   9 O    0-1 0  10 O    0 0-1
   2 FE   1     2.9606     5.5948   4 FE  -1 0 0
   2 FE   3     2.9772     5.6262   3 FE   0-1 0   3 FE   0 0-1   3 FE  -1 0 0
   2 FE   3     3.3407     6.3129   4 FE   0 0 0   4 FE  -1 0 1   4 FE  -1 1 0
   2 FE   3     3.3852     6.3971   5 O    1 0-1   6 O   -1 1 0   7 O    0-1 1

   3 FE   3     1.9316     3.6501   8 O    0 0 0   9 O    0 0 0  10 O    0 0 0
   3 FE   3     2.1389     4.0419   5 O    1 0 0   6 O    0 1 0   7 O    0 0 1
   3 FE   1     2.9603     5.5942   1 FE   1 0 0
   3 FE   3     2.9772     5.6262   2 FE   0 1 0   2 FE   0 0 1   2 FE   1 0 0
   3 FE   3     3.3408     6.3132   1 FE   0 0 0   1 FE   1 0-1   1 FE   1-1 0
   3 FE   3     3.3863     6.3991   8 O   -1 0 1   9 O    1-1 0  10 O    0 1-1

   4 FE   3     1.9321     3.6512   5 O    1 0-1   6 O    0 0 0   7 O    1-1 0
   4 FE   3     2.1374     4.0392   8 O    0 0 0   9 O    1-1 0  10 O    1 0-1
   4 FE   1     2.9606     5.5948   2 FE   1 0 0
   4 FE   3     2.9738     5.6197   1 FE   1 0-1   1 FE   1-1 0   1 FE   2-1-1
   4 FE   3     3.3407     6.3129   2 FE   0 0 0   2 FE   1 0-1   2 FE   1-1 0
   4 FE   3     3.3953     6.4162   5 O    1-1 0   6 O    1 0-1   7 O    0 0 0

   5 O    1     1.9310     3.6491   2 FE   0 0 0
   5 O    1     1.9321     3.6512   4 FE  -1 0 1
   5 O    1     2.1388     4.0418   1 FE   0 0 0
   5 O    1     2.1389     4.0419   3 FE  -1 0 0
   5 O    2     2.6742     5.0535   6 O   -1 1 0   7 O   -1 0 1
   5 O    1     2.7844     5.2617   8 O   -1 0 0

   8 O    1     1.9316     3.6501   3 FE   0 0 0
   8 O    1     1.9316     3.6502   1 FE   1 0-1
   8 O    1     2.1374     4.0392   4 FE   0 0 0
   8 O    1     2.1406     4.0451   2 FE   1 0 0
   8 O    2     2.6743     5.0537   9 O    1-1 0  10 O    1 0-1
   8 O    1     2.7844     5.2617   5 O    1 0 0


 SYMMETRY ALLOWED ELASTIC DISTORTION 1
  0.5773503  0.0000000  0.0000000
  0.0000000  0.5773503  0.0000000
  0.0000000  0.0000000  0.5773503

 SYMMETRY ALLOWED ELASTIC DISTORTION 2
  0.4082483  0.0000000  0.0000000
  0.0000000  0.4082483  0.0000000
  0.0000000  0.0000000 -0.8164966

 SYMMETRY ALLOWED INTERNAL DEGREE(S) OF FREEDOM:   9
 TTTTTTTTTTTTTTTTTTTTTTTTTTTTTT SYMM        TELAPSE        1.35 TCPU        0.01
 TTTTTTTTTTTTTTTTTTTTTTTTTTTTTT INT_SCREEN  TELAPSE        1.35 TCPU        0.01
 *******************************************************************************
 COORDINATE AND CELL OPTIMIZATION - POINT    1
PROCESS             1  OF             2  WORKING
 INFORMATION **** EXCBUF **** EXCH. BIPO BUFFER: WORDS USED =         0

 DFT PARAMETERS

     ATOM       ELECTRONS   NET CHARGE   R(ANGSTROM)
   1  26  FE     23.0000      3.0000     0.64000000
   5   8  O      10.0000     -2.0000     1.40000000

 SIZE OF GRID=      68936
 TTTTTTTTTTTTTTTTTTTTTTTTTTTTTT MAKEGRID    TELAPSE      339.47 TCPU      112.65
 BECKE WEIGHT FUNCTION
 RADSAFE =     2.00
 TOLERANCES - DENSITY:10**- 6; POTENTIAL:10**- 9; GRID WGT:10**-14

 RADIAL INTEGRATION  - INTERVALS (POINTS,UPPER LIMIT):            1( 75,  4.0*R)

 ANGULAR INTEGRATION - INTERVALS (ACCURACY LEVEL [N. POINTS] UPPER LIMIT):
  1(  4[  86]   0.2)  2(  8[ 194]   0.5)  3( 12[ 350]   0.9)  4( 16[ 974]   3.5)
  5( 12[ 350]9999.0)
 TTTTTTTTTTTTTTTTTTTTTTTTTTTTTT INT_CALC    TELAPSE      339.60 TCPU      112.77

 *******************************************************************************
 HEMATITE PBE XLGRID                                                             
 CRYSTAL - SCF - TYPE OF CALCULATION :  UNRESTRICTED OPEN SHELL
 *******************************************************************************

 CAPPA: IS1=  6 IS2=  6 IS3=  6K POINTS MONKHORST NET   40 SYMMOPS K SPACE  6 SYMMOPS G SPACE  3


 CAPPA1: ISJ1=  6 ISJ2=  6 ISJ3=  6K POINTS GILAT NET   40 SYMMOPS K SPACE  6 SYMMOPS G SPACE  3

 TTTTTTTTTTTTTTTTTTTTTTTTTTTTTT SDIK        TELAPSE      340.94 TCPU      113.73

 AAAAAAAAAAAAAAAAAAAAAAAAAAAAAAAAAAAAAAAAAAAAAAAAAAAAAAAAAAAAAAAAAAAAAAAAAAAAAAA
         ATOMIC WAVEFUNCTION(S)


 NUCLEAR CHARGE 26.0  SYMMETRY SPECIES            S    P    D
 N. ELECTRONS   23.0  NUMBER OF PRIMITIVE GTOS   20   12    5
                      NUMBER OF CONTRACTED GTOS   5    4    2
                      NUMBER OF CLOSED SHELLS     3    2    0
                      OPEN SHELL OCCUPATION       0    0    5

  ZNUC SCFIT  TOTAL HF ENERGY   KINETIC ENERGY   VIRIAL THEOREM ACCURACY
  26.0  15   -1.260550909E+03  1.260303924E+03 -2.000195972E+00  2.8E-06

 NUCLEAR CHARGE  8.0  SYMMETRY SPECIES            S    P
 N. ELECTRONS   10.0  NUMBER OF PRIMITIVE GTOS   14    6
                      NUMBER OF CONTRACTED GTOS   4    3
                      NUMBER OF CLOSED SHELLS     2    1
                      OPEN SHELL OCCUPATION       0    0

  ZNUC SCFIT  TOTAL HF ENERGY   KINETIC ENERGY   VIRIAL THEOREM ACCURACY
   8.0  61   -7.433102083E+01  7.469307318E+01 -1.995152799E+00  4.6E-06

 AAAAAAAAAAAAAAAAAAAAAAAAAAAAAAAAAAAAAAAAAAAAAAAAAAAAAAAAAAAAAAAAAAAAAAAAAAAAAAA

 CHARGE NORMALIZATION FACTOR   1.00000000
 TOTAL ATOMIC CHARGES:
  23.0000000  23.0000000  23.0000000  23.0000000  10.0000000  10.0000000
  10.0000000  10.0000000  10.0000000  10.0000000
 SUMMED SPIN DENSITY           0.00000000
 TOTAL ATOMIC SPINS  :
   5.0000000  -5.0000000  -5.0000000   5.0000000   0.0000000   0.0000000
   0.0000000   0.0000000   0.0000000   0.0000000
 TTTTTTTTTTTTTTTTTTTTTTTTTTTTTT MOQGAD      TELAPSE      342.94 TCPU      113.89
 TTTTTTTTTTTTTTTTTTTTTTTTTTTTTT SHELLX      TELAPSE      367.49 TCPU      123.13
 TTTTTTTTTTTTTTTTTTTTTTTTTTTTTT MONMO3      TELAPSE      372.38 TCPU      124.52
 NUMERICALLY INTEGRATED DENSITY     76.0000151124     75.9999523628
 TTTTTTTTTTTTTTTTTTTTTTTTTTTTTT NUMDFT      TELAPSE      424.24 TCPU      141.51
 CYC   0 ETOT(AU) -5.508527640846E+03 DETOT -5.51E+03 tst  0.00E+00 PX  1.00E+00
 TTTTTTTTTTTTTTTTTTTTTTTTTTTTTT FDIK        TELAPSE      482.78 TCPU      160.76
 INSULATING STATE - TOP OF VALENCE BANDS (A.U.) -1.0000000E+00
 TTTTTTTTTTTTTTTTTTTTTTTTTTTTTT PDIG        TELAPSE      486.37 TCPU      161.95
 CHARGE NORMALIZATION FACTOR   1.00000000
 TOTAL ATOMIC CHARGES:
  24.4703274  24.4545600  24.4490083  24.4657760   9.0269745   9.0269745
   9.0269745   9.0264682   9.0264682   9.0264682
 SUMMED SPIN DENSITY           0.00000000
 TOTAL ATOMIC SPINS  :
   3.5023721  -3.5134940  -3.5181234   3.5063820   0.0027628   0.0027628
   0.0027628   0.0048583   0.0048583   0.0048583
 TTTTTTTTTTTTTTTTTTTTTTTTTTTTTT MOQGAD      TELAPSE      486.78 TCPU      162.11
 TTTTTTTTTTTTTTTTTTTTTTTTTTTTTT SHELLX      TELAPSE      515.74 TCPU      173.47
 TTTTTTTTTTTTTTTTTTTTTTTTTTTTTT MONMO3      TELAPSE      521.44 TCPU      174.85
 NUMERICALLY INTEGRATED DENSITY     76.0000119037     75.9999650910
 TTTTTTTTTTTTTTTTTTTTTTTTTTTTTT NUMDFT      TELAPSE      663.81 TCPU      218.32
 CYC   1 ETOT(AU) -5.504833451034E+03 DETOT  3.69E+00 tst  0.00E+00 PX  1.00E+00
 TTTTTTTTTTTTTTTTTTTTTTTTTTTTTT FDIK        TELAPSE      693.45 TCPU      228.47
 INSULATING STATE - TOP OF VALENCE BANDS (A.U.) -1.0000000E+00
 TTTTTTTTTTTTTTTTTTTTTTTTTTTTTT PDIG        TELAPSE      695.92 TCPU      230.92
 CHARGE NORMALIZATION FACTOR   1.00000000
 TOTAL ATOMIC CHARGES:
  23.9862622  23.9931321  23.9937336  23.9868255   9.3400690   9.3400690
   9.3400690   9.3399466   9.3399466   9.3399466
 SUMMED SPIN DENSITY           0.00000000
 TOTAL ATOMIC SPINS  :
   3.8829509  -3.8807620  -3.8810094   3.8832739  -0.0011497  -0.0011497
  -0.0011497  -0.0003348  -0.0003348  -0.0003348
 TTTTTTTTTTTTTTTTTTTTTTTTTTTTTT MOQGAD      TELAPSE      696.43 TCPU      231.09
 TTTTTTTTTTTTTTTTTTTTTTTTTTTTTT SHELLX      TELAPSE      726.19 TCPU      242.59
 TTTTTTTTTTTTTTTTTTTTTTTTTTTTTT MONMO3      TELAPSE      730.87 TCPU      244.00
 NUMERICALLY INTEGRATED DENSITY     76.0000148805     75.9999658838
 TTTTTTTTTTTTTTTTTTTTTTTTTTTTTT NUMDFT      TELAPSE      907.08 TCPU      287.87
 CYC   2 ETOT(AU) -5.505234877699E+03 DETOT -4.01E-01 tst  3.05E-02 PX  1.14E-01
 TTTTTTTTTTTTTTTTTTTTTTTTTTTTTT FDIK        TELAPSE      940.02 TCPU      297.93
 INSULATING STATE - TOP OF VALENCE BANDS (A.U.) -1.0000000E+00
 TTTTTTTTTTTTTTTTTTTTTTTTTTTTTT PDIG        TELAPSE      944.45 TCPU      299.05
 CHARGE NORMALIZATION FACTOR   1.00000000
 TOTAL ATOMIC CHARGES:
  23.9394048  23.9421641  23.9428183  23.9399196   9.3726228   9.3726228
   9.3726228   9.3726083   9.3726083   9.3726083
 SUMMED SPIN DENSITY           0.00000000
 TOTAL ATOMIC SPINS  :
   3.9242827  -3.9234710  -3.9233553   3.9242999  -0.0006784  -0.0006784
  -0.0006784   0.0000929   0.0000929   0.0000929
 TTTTTTTTTTTTTTTTTTTTTTTTTTTTTT MOQGAD      TELAPSE      944.96 TCPU      299.20
 TTTTTTTTTTTTTTTTTTTTTTTTTTTTTT SHELLX      TELAPSE      980.57 TCPU      309.92
 TTTTTTTTTTTTTTTTTTTTTTTTTTTTTT MONMO3      TELAPSE      988.26 TCPU      311.27
 NUMERICALLY INTEGRATED DENSITY     76.0000155134     75.9999658241
 TTTTTTTTTTTTTTTTTTTTTTTTTTTTTT NUMDFT      TELAPSE     1169.78 TCPU      356.43
 CYC   3 ETOT(AU) -5.505285501736E+03 DETOT -5.06E-02 tst  9.90E-04 PX  2.55E-02
 TTTTTTTTTTTTTTTTTTTTTTTTTTTTTT FDIK        TELAPSE     1211.04 TCPU      366.30
 INSULATING STATE - TOP OF VALENCE BANDS (A.U.) -1.0000000E+00
 TTTTTTTTTTTTTTTTTTTTTTTTTTTTTT PDIG        TELAPSE     1213.51 TCPU      368.74
 CHARGE NORMALIZATION FACTOR   1.00000000
 TOTAL ATOMIC CHARGES:
  23.9974855  23.9954587  23.9949355  23.9969720   9.3358720   9.3358720
   9.3358720   9.3358441   9.3358441   9.3358441
 SUMMED SPIN DENSITY           0.00000000
 TOTAL ATOMIC SPINS  :
   3.8724309  -3.8738314  -3.8742772   3.8729607  -0.0000480  -0.0000480
  -0.0000480   0.0009536   0.0009536   0.0009536
 TTTTTTTTTTTTTTTTTTTTTTTTTTTTTT MOQGAD      TELAPSE     1214.25 TCPU      368.90
 TTTTTTTTTTTTTTTTTTTTTTTTTTTTTT SHELLX      TELAPSE     1256.23 TCPU      380.68
 TTTTTTTTTTTTTTTTTTTTTTTTTTTTTT MONMO3      TELAPSE     1261.82 TCPU      382.06
 NUMERICALLY INTEGRATED DENSITY     76.0000156524     75.9999659431
 TTTTTTTTTTTTTTTTTTTTTTTTTTTTTT NUMDFT      TELAPSE     1447.82 TCPU      427.53
 CYC   4 ETOT(AU) -5.505302965914E+03 DETOT -1.75E-02 tst  3.03E-04 PX  1.84E-02
 TTTTTTTTTTTTTTTTTTTTTTTTTTTTTT FDIK        TELAPSE     1480.91 TCPU      437.37
 INSULATING STATE - TOP OF VALENCE BANDS (A.U.) -1.0000000E+00
 TTTTTTTTTTTTTTTTTTTTTTTTTTTTTT PDIG        TELAPSE     1483.38 TCPU      439.81
 CHARGE NORMALIZATION FACTOR   1.00000000
 TOTAL ATOMIC CHARGES:
  23.9976855  23.9977450  23.9971598  23.9971411   9.3350719   9.3350719
   9.3350719   9.3350176   9.3350176   9.3350176
 SUMMED SPIN DENSITY           0.00000000
 TOTAL ATOMIC SPINS  :
   3.8600155  -3.8602931  -3.8607091   3.8605091  -0.0004344  -0.0004344
  -0.0004344   0.0005936   0.0005936   0.0005936
 TTTTTTTTTTTTTTTTTTTTTTTTTTTTTT MOQGAD      TELAPSE     1483.95 TCPU      439.97
 TTTTTTTTTTTTTTTTTTTTTTTTTTTTTT SHELLX      TELAPSE     1527.18 TCPU      450.78
 TTTTTTTTTTTTTTTTTTTTTTTTTTTTTT MONMO3      TELAPSE     1532.72 TCPU      452.13
 NUMERICALLY INTEGRATED DENSITY     76.0000156937     75.9999660604
 TTTTTTTTTTTTTTTTTTTTTTTTTTTTTT NUMDFT      TELAPSE     1723.49 TCPU      495.64
 CYC   5 ETOT(AU) -5.505304120271E+03 DETOT -1.15E-03 tst  1.33E-04 PX  3.23E-03
 TTTTTTTTTTTTTTTTTTTTTTTTTTTTTT FDIK        TELAPSE     1755.78 TCPU      505.44
 INSULATING STATE - TOP OF VALENCE BANDS (A.U.) -1.0000000E+00
 TTTTTTTTTTTTTTTTTTTTTTTTTTTTTT PDIG        TELAPSE     1758.24 TCPU      507.90
 CHARGE NORMALIZATION FACTOR   1.00000000
 TOTAL ATOMIC CHARGES:
  23.9826944  23.9835047  23.9832447  23.9824350   9.3447157   9.3447157
   9.3447157   9.3446580   9.3446580   9.3446580
 SUMMED SPIN DENSITY           0.00000000
 TOTAL ATOMIC SPINS  :
   3.8625916  -3.8624221  -3.8625614   3.8628493  -0.0005643  -0.0005643
  -0.0005643   0.0004118   0.0004118   0.0004118
 TTTTTTTTTTTTTTTTTTTTTTTTTTTTTT MOQGAD      TELAPSE     1759.00 TCPU      508.05
 TTTTTTTTTTTTTTTTTTTTTTTTTTTTTT SHELLX      TELAPSE     1801.71 TCPU      518.81
 TTTTTTTTTTTTTTTTTTTTTTTTTTTTTT MONMO3      TELAPSE     1807.42 TCPU      520.17
 NUMERICALLY INTEGRATED DENSITY     76.0000156707     75.9999660574
 TTTTTTTTTTTTTTTTTTTTTTTTTTTTTT NUMDFT      TELAPSE     1983.38 TCPU      564.85
 CYC   6 ETOT(AU) -5.505305152703E+03 DETOT -1.03E-03 tst  1.64E-04 PX  3.42E-03
 TTTTTTTTTTTTTTTTTTTTTTTTTTTTTT FDIK        TELAPSE     2020.50 TCPU      574.02
 INSULATING STATE - TOP OF VALENCE BANDS (A.U.) -1.0000000E+00
 TTTTTTTTTTTTTTTTTTTTTTTTTTTTTT PDIG        TELAPSE     2025.78 TCPU      575.16
 CHARGE NORMALIZATION FACTOR   1.00000000
 TOTAL ATOMIC CHARGES:
  23.9822839  23.9822753  23.9820197  23.9820429   9.3452542   9.3452542
   9.3452542   9.3452052   9.3452052   9.3452052
 SUMMED SPIN DENSITY           0.00000000
 TOTAL ATOMIC SPINS  :
   3.8564429  -3.8566233  -3.8566974   3.8566340  -0.0004482  -0.0004482
  -0.0004482   0.0005295   0.0005295   0.0005295
 TTTTTTTTTTTTTTTTTTTTTTTTTTTTTT MOQGAD      TELAPSE     2026.29 TCPU      575.32
 TTTTTTTTTTTTTTTTTTTTTTTTTTTTTT SHELLX      TELAPSE     2063.01 TCPU      586.42
 TTTTTTTTTTTTTTTTTTTTTTTTTTTTTT MONMO3      TELAPSE     2070.49 TCPU      587.78
 NUMERICALLY INTEGRATED DENSITY     76.0000156345     75.9999660561
 TTTTTTTTTTTTTTTTTTTTTTTTTTTTTT NUMDFT      TELAPSE     2256.72 TCPU      631.86
 CYC   7 ETOT(AU) -5.505305412371E+03 DETOT -2.60E-04 tst  8.93E-05 PX  1.19E-03
 TTTTTTTTTTTTTTTTTTTTTTTTTTTTTT FDIK        TELAPSE     2292.81 TCPU      640.68
 INSULATING STATE - TOP OF VALENCE BANDS (A.U.) -1.0000000E+00
 TTTTTTTTTTTTTTTTTTTTTTTTTTTTTT PDIG        TELAPSE     2297.56 TCPU      641.85
 CHARGE NORMALIZATION FACTOR   1.00000000
 TOTAL ATOMIC CHARGES:
  23.9863365  23.9862687  23.9859105  23.9860041   9.3426028   9.3426028
   9.3426028   9.3425573   9.3425573   9.3425573
 SUMMED SPIN DENSITY           0.00000000
 TOTAL ATOMIC SPINS  :
   3.8474866  -3.8476803  -3.8477651   3.8476901  -0.0004539  -0.0004539
  -0.0004539   0.0005435   0.0005435   0.0005435
 TTTTTTTTTTTTTTTTTTTTTTTTTTTTTT MOQGAD      TELAPSE     2298.07 TCPU      642.00
 TTTTTTTTTTTTTTTTTTTTTTTTTTTTTT SHELLX      TELAPSE     2334.37 TCPU      652.84
 TTTTTTTTTTTTTTTTTTTTTTTTTTTTTT MONMO3      TELAPSE     2344.11 TCPU      654.18
 NUMERICALLY INTEGRATED DENSITY     76.0000156122     75.9999660926
 TTTTTTTTTTTTTTTTTTTTTTTTTTTTTT NUMDFT      TELAPSE     2532.94 TCPU      697.18
 CYC   8 ETOT(AU) -5.505305594865E+03 DETOT -1.82E-04 tst  5.26E-05 PX  1.39E-03
 TTTTTTTTTTTTTTTTTTTTTTTTTTTTTT FDIK        TELAPSE     2565.56 TCPU      705.73
 INSULATING STATE - TOP OF VALENCE BANDS (A.U.) -1.0000000E+00
 TTTTTTTTTTTTTTTTTTTTTTTTTTTTTT PDIG        TELAPSE     2570.06 TCPU      706.87
 CHARGE NORMALIZATION FACTOR   1.00000000
 TOTAL ATOMIC CHARGES:
  23.9877848  23.9879481  23.9875893  23.9874448   9.3415624   9.3415624
   9.3415624   9.3415153   9.3415153   9.3415153
 SUMMED SPIN DENSITY           0.00000000
 TOTAL ATOMIC SPINS  :
   3.8412474  -3.8413164  -3.8413625   3.8414241  -0.0004991  -0.0004991
  -0.0004991   0.0005016   0.0005016   0.0005016
 TTTTTTTTTTTTTTTTTTTTTTTTTTTTTT MOQGAD      TELAPSE     2570.77 TCPU      707.04
 TTTTTTTTTTTTTTTTTTTTTTTTTTTTTT SHELLX      TELAPSE     2606.84 TCPU      717.91
 TTTTTTTTTTTTTTTTTTTTTTTTTTTTTT MONMO3      TELAPSE     2616.65 TCPU      719.27
 NUMERICALLY INTEGRATED DENSITY     76.0000155936     75.9999661352
 TTTTTTTTTTTTTTTTTTTTTTTTTTTTTT NUMDFT      TELAPSE     2820.90 TCPU      764.72
 CYC   9 ETOT(AU) -5.505305693387E+03 DETOT -9.85E-05 tst  4.23E-05 PX  1.29E-03
 TTTTTTTTTTTTTTTTTTTTTTTTTTTTTT FDIK        TELAPSE     2850.84 TCPU      773.77
 INSULATING STATE - TOP OF VALENCE BANDS (A.U.) -1.0000000E+00
 TTTTTTTTTTTTTTTTTTTTTTTTTTTTTT PDIG        TELAPSE     2853.31 TCPU      776.22
 CHARGE NORMALIZATION FACTOR   1.00000000
 TOTAL ATOMIC CHARGES:
  23.9881236  23.9882480  23.9879282  23.9878173   9.3413380   9.3413380
   9.3413380   9.3412897   9.3412897   9.3412897
 SUMMED SPIN DENSITY           0.00000000
 TOTAL ATOMIC SPINS  :
   3.8368607  -3.8369385  -3.8369259   3.8369896  -0.0004954  -0.0004954
  -0.0004954   0.0005002   0.0005002   0.0005002
 TTTTTTTTTTTTTTTTTTTTTTTTTTTTTT MOQGAD      TELAPSE     2853.49 TCPU      776.40
 TTTTTTTTTTTTTTTTTTTTTTTTTTTTTT SHELLX      TELAPSE     2898.98 TCPU      787.82
 TTTTTTTTTTTTTTTTTTTTTTTTTTTTTT MONMO3      TELAPSE     2904.56 TCPU      789.19
 NUMERICALLY INTEGRATED DENSITY     76.0000155736     75.9999661659
 TTTTTTTTTTTTTTTTTTTTTTTTTTTTTT NUMDFT      TELAPSE     3088.64 TCPU      833.33
 CYC  10 ETOT(AU) -5.505305757234E+03 DETOT -6.38E-05 tst  3.40E-05 PX  1.00E-03
 TTTTTTTTTTTTTTTTTTTTTTTTTTTTTT FDIK        TELAPSE     3125.74 TCPU      841.66
 INSULATING STATE - TOP OF VALENCE BANDS (A.U.) -1.0000000E+00
 TTTTTTTTTTTTTTTTTTTTTTTTTTTTTT PDIG        TELAPSE     3130.24 TCPU      842.82
 CHARGE NORMALIZATION FACTOR   1.00000000
 TOTAL ATOMIC CHARGES:
  23.9887342  23.9888082  23.9884990  23.9884390   9.3409438   9.3409438
   9.3409438   9.3408960   9.3408960   9.3408960
 SUMMED SPIN DENSITY           0.00000000
 TOTAL ATOMIC SPINS  :
   3.8330756  -3.8331733  -3.8331227   3.8331728  -0.0004889  -0.0004889
  -0.0004889   0.0005048   0.0005048   0.0005048
 TTTTTTTTTTTTTTTTTTTTTTTTTTTTTT MOQGAD      TELAPSE     3130.75 TCPU      842.98
 TTTTTTTTTTTTTTTTTTTTTTTTTTTTTT SHELLX      TELAPSE     3170.25 TCPU      854.11
 TTTTTTTTTTTTTTTTTTTTTTTTTTTTTT MONMO3      TELAPSE     3182.34 TCPU      855.49
 NUMERICALLY INTEGRATED DENSITY     76.0000155535     75.9999661883
 TTTTTTTTTTTTTTTTTTTTTTTTTTTTTT NUMDFT      TELAPSE     3364.67 TCPU      901.01
 CYC  11 ETOT(AU) -5.505305797270E+03 DETOT -4.00E-05 tst  2.60E-05 PX  7.81E-04
 TTTTTTTTTTTTTTTTTTTTTTTTTTTTTT FDIK        TELAPSE     3399.19 TCPU      909.47
 INSULATING STATE - TOP OF VALENCE BANDS (A.U.) -1.0000000E+00
 TTTTTTTTTTTTTTTTTTTTTTTTTTTTTT PDIG        TELAPSE     3403.98 TCPU      910.64
 CHARGE NORMALIZATION FACTOR   1.00000000
 TOTAL ATOMIC CHARGES:
  23.9894150  23.9895174  23.9892025  23.9891150   9.3404821   9.3404821
   9.3404821   9.3404346   9.3404346   9.3404346
 SUMMED SPIN DENSITY           0.00000000
 TOTAL ATOMIC SPINS  :
   3.8298408  -3.8299233  -3.8298498   3.8299199  -0.0004950  -0.0004950
  -0.0004950   0.0004991   0.0004991   0.0004991
 TTTTTTTTTTTTTTTTTTTTTTTTTTTTTT MOQGAD      TELAPSE     3404.69 TCPU      910.80
 TTTTTTTTTTTTTTTTTTTTTTTTTTTTTT SHELLX      TELAPSE     3442.23 TCPU      921.96
 TTTTTTTTTTTTTTTTTTTTTTTTTTTTTT MONMO3      TELAPSE     3449.40 TCPU      923.35
 NUMERICALLY INTEGRATED DENSITY     76.0000155353     75.9999662070
 TTTTTTTTTTTTTTTTTTTTTTTTTTTTTT NUMDFT      TELAPSE     3640.46 TCPU      967.18
 CYC  12 ETOT(AU) -5.505305824074E+03 DETOT -2.68E-05 tst  1.98E-05 PX  6.44E-04
 TTTTTTTTTTTTTTTTTTTTTTTTTTTTTT FDIK        TELAPSE     3674.36 TCPU      975.82
 INSULATING STATE - TOP OF VALENCE BANDS (A.U.) -1.0000000E+00
 TTTTTTTTTTTTTTTTTTTTTTTTTTTTTT PDIG        TELAPSE     3679.45 TCPU      977.02
 CHARGE NORMALIZATION FACTOR   1.00000000
 TOTAL ATOMIC CHARGES:
  23.9899270  23.9900374  23.9897236  23.9896270   9.3401379   9.3401379
   9.3401379   9.3400904   9.3400904   9.3400904
 SUMMED SPIN DENSITY           0.00000000
 TOTAL ATOMIC SPINS  :
   3.8272268  -3.8273048  -3.8272090   3.8272889  -0.0004971  -0.0004971
  -0.0004971   0.0004965   0.0004965   0.0004965
 TTTTTTTTTTTTTTTTTTTTTTTTTTTTTT MOQGAD      TELAPSE     3680.17 TCPU      977.18
 TTTTTTTTTTTTTTTTTTTTTTTTTTTTTT SHELLX      TELAPSE     3716.21 TCPU      988.00
 TTTTTTTTTTTTTTTTTTTTTTTTTTTTTT MONMO3      TELAPSE     3726.01 TCPU      989.34
 NUMERICALLY INTEGRATED DENSITY     76.0000155190     75.9999662227
 TTTTTTTTTTTTTTTTTTTTTTTTTTTTTT NUMDFT      TELAPSE     3922.67 TCPU     1032.22
 CYC  13 ETOT(AU) -5.505305842286E+03 DETOT -1.82E-05 tst  1.56E-05 PX  5.31E-04
 TTTTTTTTTTTTTTTTTTTTTTTTTTTTTT FDIK        TELAPSE     3956.50 TCPU     1040.81
 INSULATING STATE - TOP OF VALENCE BANDS (A.U.) -1.0000000E+00
 TTTTTTTTTTTTTTTTTTTTTTTTTTTTTT PDIG        TELAPSE     3961.22 TCPU     1041.97
 CHARGE NORMALIZATION FACTOR   1.00000000
 TOTAL ATOMIC CHARGES:
  23.9903077  23.9904124  23.9901049  23.9900125   9.3398842   9.3398842
   9.3398842   9.3398366   9.3398366   9.3398366
 SUMMED SPIN DENSITY           0.00000000
 TOTAL ATOMIC SPINS  :
   3.8251189  -3.8251997  -3.8250815   3.8251634  -0.0004962  -0.0004962
  -0.0004962   0.0004959   0.0004959   0.0004959
 TTTTTTTTTTTTTTTTTTTTTTTTTTTTTT MOQGAD      TELAPSE     3961.73 TCPU     1042.13
 TTTTTTTTTTTTTTTTTTTTTTTTTTTTTT SHELLX      TELAPSE     3997.63 TCPU     1052.99
 TTTTTTTTTTTTTTTTTTTTTTTTTTTTTT MONMO3      TELAPSE     4007.23 TCPU     1054.34
 NUMERICALLY INTEGRATED DENSITY     76.0000155048     75.9999662356
 TTTTTTTTTTTTTTTTTTTTTTTTTTTTTT NUMDFT      TELAPSE     4207.65 TCPU     1098.45
 CYC  14 ETOT(AU) -5.505305854740E+03 DETOT -1.25E-05 tst  1.23E-05 PX  4.31E-04
 TTTTTTTTTTTTTTTTTTTTTTTTTTTTTT FDIK        TELAPSE     4241.97 TCPU     1107.26
 INSULATING STATE - TOP OF VALENCE BANDS (A.U.) -1.0000000E+00
 TTTTTTTTTTTTTTTTTTTTTTTTTTTTTT PDIG        TELAPSE     4246.78 TCPU     1108.46
 CHARGE NORMALIZATION FACTOR   1.00000000
 TOTAL ATOMIC CHARGES:
  23.9906205  23.9907256  23.9904221  23.9903286   9.3396742   9.3396742
   9.3396742   9.3396269   9.3396269   9.3396269
 SUMMED SPIN DENSITY           0.00000000
 TOTAL ATOMIC SPINS  :
   3.8233933  -3.8234742  -3.8233375   3.8234230  -0.0004961  -0.0004961
  -0.0004961   0.0004946   0.0004946   0.0004946
 TTTTTTTTTTTTTTTTTTTTTTTTTTTTTT MOQGAD      TELAPSE     4247.49 TCPU     1108.62
 TTTTTTTTTTTTTTTTTTTTTTTTTTTTTT SHELLX      TELAPSE     4286.07 TCPU     1120.04
 TTTTTTTTTTTTTTTTTTTTTTTTTTTTTT MONMO3      TELAPSE     4295.40 TCPU     1121.42
 NUMERICALLY INTEGRATED DENSITY     76.0000154921     75.9999662459
 TTTTTTTTTTTTTTTTTTTTTTTTTTTTTT NUMDFT      TELAPSE     4487.74 TCPU     1166.49
 CYC  15 ETOT(AU) -5.505305863396E+03 DETOT -8.66E-06 tst  9.69E-06 PX  3.52E-04
 TTTTTTTTTTTTTTTTTTTTTTTTTTTTTT FDIK        TELAPSE     4520.62 TCPU     1174.91
 INSULATING STATE - TOP OF VALENCE BANDS (A.U.) -1.0000000E+00
 TTTTTTTTTTTTTTTTTTTTTTTTTTTTTT PDIG        TELAPSE     4525.33 TCPU     1176.03
 CHARGE NORMALIZATION FACTOR   1.00000000
 TOTAL ATOMIC CHARGES:
  23.9908827  23.9909896  23.9906876  23.9905922   9.3394983   9.3394983
   9.3394983   9.3394510   9.3394510   9.3394510
 SUMMED SPIN DENSITY           0.00000000
 TOTAL ATOMIC SPINS  :
   3.8219723  -3.8220537  -3.8219021   3.8219904  -0.0004961  -0.0004961
  -0.0004961   0.0004938   0.0004938   0.0004938
 TTTTTTTTTTTTTTTTTTTTTTTTTTTTTT MOQGAD      TELAPSE     4525.84 TCPU     1176.18
 TTTTTTTTTTTTTTTTTTTTTTTTTTTTTT SHELLX      TELAPSE     4563.43 TCPU     1187.45
 TTTTTTTTTTTTTTTTTTTTTTTTTTTTTT MONMO3      TELAPSE     4571.19 TCPU     1188.85
 NUMERICALLY INTEGRATED DENSITY     76.0000154813     75.9999662545
 TTTTTTTTTTTTTTTTTTTTTTTTTTTTTT NUMDFT      TELAPSE     4756.61 TCPU     1234.34
 CYC  16 ETOT(AU) -5.505305869485E+03 DETOT -6.09E-06 tst  7.65E-06 PX  2.89E-04
 TTTTTTTTTTTTTTTTTTTTTTTTTTTTTT FDIK        TELAPSE     4789.58 TCPU     1242.71
 INSULATING STATE - TOP OF VALENCE BANDS (A.U.) -1.0000000E+00
 TTTTTTTTTTTTTTTTTTTTTTTTTTTTTT PDIG        TELAPSE     4794.10 TCPU     1243.87
 CHARGE NORMALIZATION FACTOR   1.00000000
 TOTAL ATOMIC CHARGES:
  23.9910984  23.9912060  23.9909056  23.9908091   9.3393538   9.3393538
   9.3393538   9.3393065   9.3393065   9.3393065
 SUMMED SPIN DENSITY           0.00000000
 TOTAL ATOMIC SPINS  :
   3.8208023  -3.8208847  -3.8207201   3.8208103  -0.0004958  -0.0004958
  -0.0004958   0.0004932   0.0004932   0.0004932
 TTTTTTTTTTTTTTTTTTTTTTTTTTTTTT MOQGAD      TELAPSE     4794.81 TCPU     1244.03
 TTTTTTTTTTTTTTTTTTTTTTTTTTTTTT SHELLX      TELAPSE     4827.55 TCPU     1255.39
 TTTTTTTTTTTTTTTTTTTTTTTTTTTTTT MONMO3      TELAPSE     4835.85 TCPU     1256.79
 NUMERICALLY INTEGRATED DENSITY     76.0000154719     75.9999662616
 TTTTTTTTTTTTTTTTTTTTTTTTTTTTTT NUMDFT      TELAPSE     5012.27 TCPU     1302.71
 CYC  17 ETOT(AU) -5.505305873852E+03 DETOT -4.37E-06 tst  6.05E-06 PX  2.38E-04
 TTTTTTTTTTTTTTTTTTTTTTTTTTTTTT FDIK        TELAPSE     5045.83 TCPU     1311.01
 INSULATING STATE - TOP OF VALENCE BANDS (A.U.) -1.0000000E+00
 TTTTTTTTTTTTTTTTTTTTTTTTTTTTTT PDIG        TELAPSE     5050.84 TCPU     1312.13
 CHARGE NORMALIZATION FACTOR   1.00000000
 TOTAL ATOMIC CHARGES:
  23.9912745  23.9913826  23.9910841  23.9909865   9.3392357   9.3392357
   9.3392357   9.3391884   9.3391884   9.3391884
 SUMMED SPIN DENSITY           0.00000000
 TOTAL ATOMIC SPINS  :
   3.8198380  -3.8199213  -3.8197453   3.8198374  -0.0004955  -0.0004955
  -0.0004955   0.0004926   0.0004926   0.0004926
 TTTTTTTTTTTTTTTTTTTTTTTTTTTTTT MOQGAD      TELAPSE     5051.34 TCPU     1312.28
 TTTTTTTTTTTTTTTTTTTTTTTTTTTTTT SHELLX      TELAPSE     5085.99 TCPU     1323.43
 TTTTTTTTTTTTTTTTTTTTTTTTTTTTTT MONMO3      TELAPSE     5093.22 TCPU     1324.82
 NUMERICALLY INTEGRATED DENSITY     76.0000154638     75.9999662675
 TTTTTTTTTTTTTTTTTTTTTTTTTTTTTT NUMDFT      TELAPSE     5283.86 TCPU     1370.26
 CYC  18 ETOT(AU) -5.505305876996E+03 DETOT -3.14E-06 tst  4.80E-06 PX  1.96E-04
 TTTTTTTTTTTTTTTTTTTTTTTTTTTTTT FDIK        TELAPSE     5316.86 TCPU     1378.93
 INSULATING STATE - TOP OF VALENCE BANDS (A.U.) -1.0000000E+00
 TTTTTTTTTTTTTTTTTTTTTTTTTTTTTT PDIG        TELAPSE     5321.56 TCPU     1380.08
 CHARGE NORMALIZATION FACTOR   1.00000000
 TOTAL ATOMIC CHARGES:
  23.9914203  23.9915282  23.9912312  23.9911336   9.3391381   9.3391381
   9.3391381   9.3390908   9.3390908   9.3390908
 SUMMED SPIN DENSITY           0.00000000
 TOTAL ATOMIC SPINS  :
   3.8190404  -3.8191250  -3.8189391   3.8190322  -0.0004951  -0.0004951
  -0.0004951   0.0004923   0.0004923   0.0004923
 TTTTTTTTTTTTTTTTTTTTTTTTTTTTTT MOQGAD      TELAPSE     5322.07 TCPU     1380.24
 TTTTTTTTTTTTTTTTTTTTTTTTTTTTTT SHELLX      TELAPSE     5360.56 TCPU     1391.69
 TTTTTTTTTTTTTTTTTTTTTTTTTTTTTT MONMO3      TELAPSE     5368.81 TCPU     1393.09
 NUMERICALLY INTEGRATED DENSITY     76.0000154568     75.9999662724
 TTTTTTTTTTTTTTTTTTTTTTTTTTTTTT NUMDFT      TELAPSE     5559.03 TCPU     1437.14
 CYC  19 ETOT(AU) -5.505305879298E+03 DETOT -2.30E-06 tst  3.81E-06 PX  1.62E-04
 TTTTTTTTTTTTTTTTTTTTTTTTTTTTTT FDIK        TELAPSE     5587.21 TCPU     1446.04
 INSULATING STATE - TOP OF VALENCE BANDS (A.U.) -1.0000000E+00
 TTTTTTTTTTTTTTTTTTTTTTTTTTTTTT PDIG        TELAPSE     5589.89 TCPU     1448.51
 CHARGE NORMALIZATION FACTOR   1.00000000
 TOTAL ATOMIC CHARGES:
  23.9915391  23.9916491  23.9913534  23.9912533   9.3390578   9.3390578
   9.3390578   9.3390105   9.3390105   9.3390105
 SUMMED SPIN DENSITY           0.00000000
 TOTAL ATOMIC SPINS  :
   3.8183798  -3.8184648  -3.8182705   3.8183653  -0.0004950  -0.0004950
  -0.0004950   0.0004917   0.0004917   0.0004917
 TTTTTTTTTTTTTTTTTTTTTTTTTTTTTT MOQGAD      TELAPSE     5590.10 TCPU     1448.68
 TTTTTTTTTTTTTTTTTTTTTTTTTTTTTT SHELLX      TELAPSE     5640.66 TCPU     1460.36
 TTTTTTTTTTTTTTTTTTTTTTTTTTTTTT MONMO3      TELAPSE     5646.41 TCPU     1461.76
 NUMERICALLY INTEGRATED DENSITY     76.0000154509     75.9999662765
 TTTTTTTTTTTTTTTTTTTTTTTTTTTTTT NUMDFT      TELAPSE     5827.27 TCPU     1506.21
 CYC  20 ETOT(AU) -5.505305880996E+03 DETOT -1.70E-06 tst  3.03E-06 PX  1.35E-04
 TTTTTTTTTTTTTTTTTTTTTTTTTTTTTT FDIK        TELAPSE     5860.35 TCPU     1514.33
 INSULATING STATE - TOP OF VALENCE BANDS (A.U.) -1.0000000E+00
 TTTTTTTTTTTTTTTTTTTTTTTTTTTTTT PDIG        TELAPSE     5865.07 TCPU     1515.49
 CHARGE NORMALIZATION FACTOR   1.00000000
 TOTAL ATOMIC CHARGES:
  23.9916408  23.9917481  23.9914535  23.9913558   9.3389906   9.3389906
   9.3389906   9.3389433   9.3389433   9.3389433
 SUMMED SPIN DENSITY           0.00000000
 TOTAL ATOMIC SPINS  :
   3.8178291  -3.8179165  -3.8177149   3.8178091  -0.0004942  -0.0004942
  -0.0004942   0.0004919   0.0004919   0.0004919
 TTTTTTTTTTTTTTTTTTTTTTTTTTTTTT MOQGAD      TELAPSE     5865.58 TCPU     1515.65
 TTTTTTTTTTTTTTTTTTTTTTTTTTTTTT SHELLX      TELAPSE     5903.81 TCPU     1527.13
 TTTTTTTTTTTTTTTTTTTTTTTTTTTTTT MONMO3      TELAPSE     5907.65 TCPU     1528.49
 NUMERICALLY INTEGRATED DENSITY     76.0000154458     75.9999662799
 TTTTTTTTTTTTTTTTTTTTTTTTTTTTTT NUMDFT      TELAPSE     6089.27 TCPU     1573.27
 CYC  21 ETOT(AU) -5.505305882263E+03 DETOT -1.27E-06 tst  2.41E-06 PX  1.12E-04
 TTTTTTTTTTTTTTTTTTTTTTTTTTTTTT FDIK        TELAPSE     6116.88 TCPU     1581.98
 INSULATING STATE - TOP OF VALENCE BANDS (A.U.) -1.0000000E+00
 TTTTTTTTTTTTTTTTTTTTTTTTTTTTTT PDIG        TELAPSE     6119.62 TCPU     1584.41
 CHARGE NORMALIZATION FACTOR   1.00000000
 TOTAL ATOMIC CHARGES:
  23.9917243  23.9918319  23.9915383  23.9914399   9.3389346   9.3389346
   9.3389346   9.3388873   9.3388873   9.3388873
 SUMMED SPIN DENSITY           0.00000000
 TOTAL ATOMIC SPINS  :
   3.8173712  -3.8174594  -3.8172516   3.8173464  -0.0004939  -0.0004939
  -0.0004939   0.0004917   0.0004917   0.0004917
 TTTTTTTTTTTTTTTTTTTTTTTTTTTTTT MOQGAD      TELAPSE     6122.56 TCPU     1584.57
 TTTTTTTTTTTTTTTTTTTTTTTTTTTTTT SHELLX      TELAPSE     6161.01 TCPU     1595.82
 TTTTTTTTTTTTTTTTTTTTTTTTTTTTTT MONMO3      TELAPSE     6166.72 TCPU     1597.21
 NUMERICALLY INTEGRATED DENSITY     76.0000154415     75.9999662827
 TTTTTTTTTTTTTTTTTTTTTTTTTTTTTT NUMDFT      TELAPSE     6349.19 TCPU     1642.01
 CYC  22 ETOT(AU) -5.505305883217E+03 DETOT -9.54E-07 tst  1.92E-06 PX  9.34E-05
 TTTTTTTTTTTTTTTTTTTTTTTTTTTTTT FDIK        TELAPSE     6382.30 TCPU     1649.98
 INSULATING STATE - TOP OF VALENCE BANDS (A.U.) -1.0000000E+00
 TTTTTTTTTTTTTTTTTTTTTTTTTTTTTT PDIG        TELAPSE     6386.74 TCPU     1651.14
 CHARGE NORMALIZATION FACTOR   1.00000000
 TOTAL ATOMIC CHARGES:
  23.9917936  23.9919008  23.9916079  23.9915100   9.3388883   9.3388883
   9.3388883   9.3388410   9.3388410   9.3388410
 SUMMED SPIN DENSITY           0.00000000
 TOTAL ATOMIC SPINS  :
   3.8169888  -3.8170783  -3.8168651   3.8169599  -0.0004935  -0.0004935
  -0.0004935   0.0004917   0.0004917   0.0004917
 TTTTTTTTTTTTTTTTTTTTTTTTTTTTTT MOQGAD      TELAPSE     6387.44 TCPU     1651.29
 TTTTTTTTTTTTTTTTTTTTTTTTTTTTTT SHELLX      TELAPSE     6421.42 TCPU     1662.61
 TTTTTTTTTTTTTTTTTTTTTTTTTTTTTT MONMO3      TELAPSE     6428.85 TCPU     1664.00
 NUMERICALLY INTEGRATED DENSITY     76.0000154378     75.9999662851
 TTTTTTTTTTTTTTTTTTTTTTTTTTTTTT NUMDFT      TELAPSE     6614.60 TCPU     1710.09
 CYC  23 ETOT(AU) -5.505305883939E+03 DETOT -7.22E-07 tst  1.53E-06 PX  7.83E-05
 TTTTTTTTTTTTTTTTTTTTTTTTTTTTTT FDIK        TELAPSE     6648.09 TCPU     1718.22
 INSULATING STATE - TOP OF VALENCE BANDS (A.U.) -1.0000000E+00
 TTTTTTTTTTTTTTTTTTTTTTTTTTTTTT PDIG        TELAPSE     6653.33 TCPU     1719.39
 CHARGE NORMALIZATION FACTOR   1.00000000
 TOTAL ATOMIC CHARGES:
  23.9918515  23.9919596  23.9916674  23.9915684   9.3388492   9.3388492
   9.3388492   9.3388019   9.3388019   9.3388019
 SUMMED SPIN DENSITY           0.00000000
 TOTAL ATOMIC SPINS  :
   3.8166689  -3.8167587  -3.8165408   3.8166364  -0.0004934  -0.0004934
  -0.0004934   0.0004914   0.0004914   0.0004914
 TTTTTTTTTTTTTTTTTTTTTTTTTTTTTT MOQGAD      TELAPSE     6653.83 TCPU     1719.55
 TTTTTTTTTTTTTTTTTTTTTTTTTTTTTT SHELLX      TELAPSE     6690.99 TCPU     1730.96
 TTTTTTTTTTTTTTTTTTTTTTTTTTTTTT MONMO3      TELAPSE     6702.29 TCPU     1732.36
 NUMERICALLY INTEGRATED DENSITY     76.0000154346     75.9999662871
 TTTTTTTTTTTTTTTTTTTTTTTTTTTTTT NUMDFT      TELAPSE     6888.12 TCPU     1776.28
 CYC  24 ETOT(AU) -5.505305884498E+03 DETOT -5.58E-07 tst  1.22E-06 PX  6.55E-05
 TTTTTTTTTTTTTTTTTTTTTTTTTTTTTT FDIK        TELAPSE     6914.87 TCPU     1784.51
 INSULATING STATE - TOP OF VALENCE BANDS (A.U.) -1.0000000E+00
 TTTTTTTTTTTTTTTTTTTTTTTTTTTTTT PDIG        TELAPSE     6919.08 TCPU     1785.62
 CHARGE NORMALIZATION FACTOR   1.00000000
 TOTAL ATOMIC CHARGES:
  23.9919004  23.9920087  23.9917171  23.9916177   9.3388163   9.3388163
   9.3388163   9.3387690   9.3387690   9.3387690
 SUMMED SPIN DENSITY           0.00000000
 TOTAL ATOMIC SPINS  :
   3.8164006  -3.8164912  -3.8162692   3.8163651  -0.0004931  -0.0004931
  -0.0004931   0.0004914   0.0004914   0.0004914
 TTTTTTTTTTTTTTTTTTTTTTTTTTTTTT MOQGAD      TELAPSE     6919.77 TCPU     1785.77
 TTTTTTTTTTTTTTTTTTTTTTTTTTTTTT SHELLX      TELAPSE     6957.80 TCPU     1797.09
 TTTTTTTTTTTTTTTTTTTTTTTTTTTTTT MONMO3      TELAPSE     6964.42 TCPU     1798.47
 NUMERICALLY INTEGRATED DENSITY     76.0000154319     75.9999662888
 TTTTTTTTTTTTTTTTTTTTTTTTTTTTTT NUMDFT      TELAPSE     7151.21 TCPU     1843.67
 CYC  25 ETOT(AU) -5.505305884925E+03 DETOT -4.27E-07 tst  9.70E-07 PX  5.49E-05
 TTTTTTTTTTTTTTTTTTTTTTTTTTTTTT FDIK        TELAPSE     7183.55 TCPU     1851.94
 INSULATING STATE - TOP OF VALENCE BANDS (A.U.) -1.0000000E+00
 TTTTTTTTTTTTTTTTTTTTTTTTTTTTTT PDIG        TELAPSE     7188.34 TCPU     1853.12
 CHARGE NORMALIZATION FACTOR   1.00000000
 TOTAL ATOMIC CHARGES:
  23.9919410  23.9920495  23.9917585  23.9916586   9.3387891   9.3387891
   9.3387891   9.3387417   9.3387417   9.3387417
 SUMMED SPIN DENSITY           0.00000000
 TOTAL ATOMIC SPINS  :
   3.8161757  -3.8162669  -3.8160414   3.8161376  -0.0004929  -0.0004929
  -0.0004929   0.0004913   0.0004913   0.0004913
 TTTTTTTTTTTTTTTTTTTTTTTTTTTTTT MOQGAD      TELAPSE     7189.05 TCPU     1853.29
 TTTTTTTTTTTTTTTTTTTTTTTTTTTTTT SHELLX      TELAPSE     7226.13 TCPU     1864.86
 TTTTTTTTTTTTTTTTTTTTTTTTTTTTTT MONMO3      TELAPSE     7235.28 TCPU     1866.24
 NUMERICALLY INTEGRATED DENSITY     76.0000154296     75.9999662903
 TTTTTTTTTTTTTTTTTTTTTTTTTTTTTT NUMDFT      TELAPSE     7430.66 TCPU     1909.85
 CYC  26 ETOT(AU) -5.505305885260E+03 DETOT -3.36E-07 tst  7.74E-07 PX  4.61E-05
 TTTTTTTTTTTTTTTTTTTTTTTTTTTTTT FDIK        TELAPSE     7462.22 TCPU     1917.84
 INSULATING STATE - TOP OF VALENCE BANDS (A.U.) -1.0000000E+00
 TTTTTTTTTTTTTTTTTTTTTTTTTTTTTT PDIG        TELAPSE     7466.94 TCPU     1919.00
 CHARGE NORMALIZATION FACTOR   1.00000000
 TOTAL ATOMIC CHARGES:
  23.9919765  23.9920831  23.9917925  23.9916946   9.3387659   9.3387659
   9.3387659   9.3387186   9.3387186   9.3387186
 SUMMED SPIN DENSITY           0.00000000
 TOTAL ATOMIC SPINS  :
   3.8159859  -3.8160784  -3.8158498   3.8159456  -0.0004925  -0.0004925
  -0.0004925   0.0004914   0.0004914   0.0004914
 TTTTTTTTTTTTTTTTTTTTTTTTTTTTTT MOQGAD      TELAPSE     7467.43 TCPU     1919.15
 TTTTTTTTTTTTTTTTTTTTTTTTTTTTTT SHELLX      TELAPSE     7503.78 TCPU     1930.07
 TTTTTTTTTTTTTTTTTTTTTTTTTTTTTT MONMO3      TELAPSE     7513.23 TCPU     1931.41
 NUMERICALLY INTEGRATED DENSITY     76.0000154276     75.9999662915
 TTTTTTTTTTTTTTTTTTTTTTTTTTTTTT NUMDFT      TELAPSE     7675.15 TCPU     1975.54
 CYC  27 ETOT(AU) -5.505305885524E+03 DETOT -2.64E-07 tst  6.18E-07 PX  3.90E-05
 TTTTTTTTTTTTTTTTTTTTTTTTTTTTTT FDIK        TELAPSE     7706.12 TCPU     1983.84
 INSULATING STATE - TOP OF VALENCE BANDS (A.U.) -1.0000000E+00
 TTTTTTTTTTTTTTTTTTTTTTTTTTTTTT PDIG        TELAPSE     7708.98 TCPU     1985.28
 CHARGE NORMALIZATION FACTOR   1.00000000
 TOTAL ATOMIC CHARGES:
  23.9920041  23.9921135  23.9918233  23.9917225   9.3387464   9.3387464
   9.3387464   9.3386991   9.3386991   9.3386991
 SUMMED SPIN DENSITY           0.00000000
 TOTAL ATOMIC SPINS  :
   3.8158271  -3.8159190  -3.8156878   3.8157848  -0.0004927  -0.0004927
  -0.0004927   0.0004910   0.0004910   0.0004910
 TTTTTTTTTTTTTTTTTTTTTTTTTTTTTT MOQGAD      TELAPSE     7709.30 TCPU     1985.44
 TTTTTTTTTTTTTTTTTTTTTTTTTTTTTT SHELLX      TELAPSE     7749.00 TCPU     1997.00
 TTTTTTTTTTTTTTTTTTTTTTTTTTTTTT MONMO3      TELAPSE     7753.76 TCPU     1998.39
 NUMERICALLY INTEGRATED DENSITY     76.0000154259     75.9999662925
 TTTTTTTTTTTTTTTTTTTTTTTTTTTTTT NUMDFT      TELAPSE     7904.51 TCPU     2043.24
 CYC  28 ETOT(AU) -5.505305885731E+03 DETOT -2.07E-07 tst  4.92E-07 PX  3.26E-05
 TTTTTTTTTTTTTTTTTTTTTTTTTTTTTT FDIK        TELAPSE     7933.81 TCPU     2051.20
 INSULATING STATE - TOP OF VALENCE BANDS (A.U.) -1.0000000E+00
 TTTTTTTTTTTTTTTTTTTTTTTTTTTTTT PDIG        TELAPSE     7938.57 TCPU     2052.36
 CHARGE NORMALIZATION FACTOR   1.00000000
 TOTAL ATOMIC CHARGES:
  23.9920293  23.9921369  23.9918471  23.9917479   9.3387301   9.3387301
   9.3387301   9.3386828   9.3386828   9.3386828
 SUMMED SPIN DENSITY           0.00000000
 TOTAL ATOMIC SPINS  :
   3.8156924  -3.8157856  -3.8155520   3.8156485  -0.0004923  -0.0004923
  -0.0004923   0.0004912   0.0004912   0.0004912
 TTTTTTTTTTTTTTTTTTTTTTTTTTTTTT MOQGAD      TELAPSE     7938.98 TCPU     2052.52
 TTTTTTTTTTTTTTTTTTTTTTTTTTTTTT SHELLX      TELAPSE     7977.72 TCPU     2063.80
 TTTTTTTTTTTTTTTTTTTTTTTTTTTTTT MONMO3      TELAPSE     7982.77 TCPU     2065.17
 NUMERICALLY INTEGRATED DENSITY     76.0000154244     75.9999662933
 TTTTTTTTTTTTTTTTTTTTTTTTTTTTTT NUMDFT      TELAPSE     8139.58 TCPU     2109.29
 CYC  29 ETOT(AU) -5.505305885895E+03 DETOT -1.64E-07 tst  3.94E-07 PX  2.77E-05
 TTTTTTTTTTTTTTTTTTTTTTTTTTTTTT FDIK        TELAPSE     8175.95 TCPU     2117.55
 INSULATING STATE - TOP OF VALENCE BANDS (A.U.) -1.0000000E+00
 TTTTTTTTTTTTTTTTTTTTTTTTTTTTTT PDIG        TELAPSE     8180.89 TCPU     2118.76
 CHARGE NORMALIZATION FACTOR   1.00000000
 TOTAL ATOMIC CHARGES:
  23.9920492  23.9921578  23.9918683  23.9917680   9.3387165   9.3387165
   9.3387165   9.3386691   9.3386691   9.3386691
 SUMMED SPIN DENSITY           0.00000000
 TOTAL ATOMIC SPINS  :
   3.8155791  -3.8156725  -3.8154369   3.8155337  -0.0004923  -0.0004923
  -0.0004923   0.0004911   0.0004911   0.0004911
 TTTTTTTTTTTTTTTTTTTTTTTTTTTTTT MOQGAD      TELAPSE     8181.61 TCPU     2118.93
 TTTTTTTTTTTTTTTTTTTTTTTTTTTTTT SHELLX      TELAPSE     8211.77 TCPU     2130.63
 TTTTTTTTTTTTTTTTTTTTTTTTTTTTTT MONMO3      TELAPSE     8217.51 TCPU     2132.02
 NUMERICALLY INTEGRATED DENSITY     76.0000154232     75.9999662941
 TTTTTTTTTTTTTTTTTTTTTTTTTTTTTT NUMDFT      TELAPSE     8386.65 TCPU     2175.07
 CYC  30 ETOT(AU) -5.505305886029E+03 DETOT -1.34E-07 tst  3.14E-07 PX  2.33E-05
 TTTTTTTTTTTTTTTTTTTTTTTTTTTTTT FDIK        TELAPSE     8411.23 TCPU     2183.22
 INSULATING STATE - TOP OF VALENCE BANDS (A.U.) -1.0000000E+00
 TTTTTTTTTTTTTTTTTTTTTTTTTTTTTT PDIG        TELAPSE     8414.94 TCPU     2184.42
 CHARGE NORMALIZATION FACTOR   1.00000000
 TOTAL ATOMIC CHARGES:
  23.9920672  23.9921746  23.9918853  23.9917862   9.3387048   9.3387048
   9.3387048   9.3386575   9.3386575   9.3386575
 SUMMED SPIN DENSITY           0.00000000
 TOTAL ATOMIC SPINS  :
   3.8154828  -3.8155771  -3.8153398   3.8154362  -0.0004920  -0.0004920
  -0.0004920   0.0004913   0.0004913   0.0004913
 TTTTTTTTTTTTTTTTTTTTTTTTTTTTTT MOQGAD      TELAPSE     8415.36 TCPU     2184.58
 TTTTTTTTTTTTTTTTTTTTTTTTTTTTTT SHELLX      TELAPSE     8452.63 TCPU     2196.42
 TTTTTTTTTTTTTTTTTTTTTTTTTTTTTT MONMO3      TELAPSE     8456.80 TCPU     2197.79
 NUMERICALLY INTEGRATED DENSITY     76.0000154222     75.9999662947
 TTTTTTTTTTTTTTTTTTTTTTTTTTTTTT NUMDFT      TELAPSE     8632.26 TCPU     2241.30
 CYC  31 ETOT(AU) -5.505305886137E+03 DETOT -1.08E-07 tst  2.51E-07 PX  2.00E-05
 TTTTTTTTTTTTTTTTTTTTTTTTTTTTTT FDIK        TELAPSE     8657.29 TCPU     2249.60
 INSULATING STATE - TOP OF VALENCE BANDS (A.U.) -1.0000000E+00
 TTTTTTTTTTTTTTTTTTTTTTTTTTTTTT PDIG        TELAPSE     8659.86 TCPU     2252.04
 CHARGE NORMALIZATION FACTOR   1.00000000
 TOTAL ATOMIC CHARGES:
  23.9920818  23.9921900  23.9919009  23.9918009   9.3386947   9.3386947
   9.3386947   9.3386474   9.3386474   9.3386474
 SUMMED SPIN DENSITY           0.00000000
 TOTAL ATOMIC SPINS  :
   3.8154015  -3.8154958  -3.8152570   3.8153538  -0.0004920  -0.0004920
  -0.0004920   0.0004912   0.0004912   0.0004912
 TTTTTTTTTTTTTTTTTTTTTTTTTTTTTT MOQGAD      TELAPSE     8660.23 TCPU     2252.21
 TTTTTTTTTTTTTTTTTTTTTTTTTTTTTT SHELLX      TELAPSE     8700.13 TCPU     2263.38
 TTTTTTTTTTTTTTTTTTTTTTTTTTTTTT MONMO3      TELAPSE     8704.07 TCPU     2264.72
 NUMERICALLY INTEGRATED DENSITY     76.0000154213     75.9999662952
 TTTTTTTTTTTTTTTTTTTTTTTTTTTTTT NUMDFT      TELAPSE     8866.95 TCPU     2309.95
 CYC  32 ETOT(AU) -5.505305886226E+03 DETOT -8.85E-08 tst  2.02E-07 PX  1.68E-05
 TTTTTTTTTTTTTTTTTTTTTTTTTTTTTT FDIK        TELAPSE     8896.17 TCPU     2318.15
 INSULATING STATE - TOP OF VALENCE BANDS (A.U.) -1.0000000E+00
 TTTTTTTTTTTTTTTTTTTTTTTTTTTTTT PDIG        TELAPSE     8900.24 TCPU     2319.38
 CHARGE NORMALIZATION FACTOR   1.00000000
 TOTAL ATOMIC CHARGES:
  23.9920949  23.9922023  23.9919134  23.9918141   9.3386862   9.3386862
   9.3386862   9.3386389   9.3386389   9.3386389
 SUMMED SPIN DENSITY           0.00000000
 TOTAL ATOMIC SPINS  :
   3.8153324  -3.8154272  -3.8151871   3.8152837  -0.0004918  -0.0004918
  -0.0004918   0.0004912   0.0004912   0.0004912
 TTTTTTTTTTTTTTTTTTTTTTTTTTTTTT MOQGAD      TELAPSE     8900.65 TCPU     2319.54
 TTTTTTTTTTTTTTTTTTTTTTTTTTTTTT SHELLX      TELAPSE     8931.22 TCPU     2330.83
 +++ ENERGIES IN A.U. +++
 ::: EXT EL-POLE                                  -3.3492658846655E+03
 ::: EXT EL-SPHEROPOLE                             3.9212186379353E+01
 ::: BIELET ZONE E-E                               4.8417580913961E+03
 ::: TOTAL E-E                                     1.5317043931099E+03
 ::: TOTAL E-N + N-E                              -1.1332201961772E+04
 ::: TOTAL N-N                                    -9.2599732526846E+02
 ::: KINETIC ENERGY                                5.4942949232178E+03
 ::: PSEUDO TOTAL   ENERGY                        -5.2321999707133E+03
 ::: VIRIAL COEFFICIENT                            1.0244343520503E+00
 TTTTTTTTTTTTTTTTTTTTTTTTTTTTTT MONMO3      TELAPSE     8937.96 TCPU     2332.21
 NUMERICALLY INTEGRATED DENSITY     76.0000154205     75.9999662957
 TTTTTTTTTTTTTTTTTTTTTTTTTTTTTT NUMDFT      TELAPSE     9116.38 TCPU     2375.45
 CYC  33 ETOT(AU) -5.505305886299E+03 DETOT -7.27E-08 tst  1.64E-07 PX  1.68E-05

 == SCF ENDED - CONVERGENCE ON ENERGY      E(AU) -5.5053058862986E+03 CYCLES  33


 ENERGY EXPRESSION=HARTREE+FOCK EXCH*0.00000+(PBE   EXCH)*1.00000+PBE   CORR


 TOTAL ENERGY(DFT)(AU)( 33) -5.5053058862986E+03 DE-7.3E-08 tester 1.6E-07
 TTTTTTTTTTTTTTTTTTTTTTTTTTTTTT EDFT        TELAPSE     9116.38 TCPU     2375.45

 *******************************************************************************
 *                             FORCE CALCULATION                               *
 *******************************************************************************

 TTTTTTTTTTTTTTTTTTTTTTTTTTTTTT NUMDFG      TELAPSE    10495.93 TCPU     2762.21
 INFORMATION **** EXCPOG **** EXCH. BIPO BUFFER LENGTH (WORDS) =         0
 INFORMATION **** GENPOG **** BIPO BUFFER LENGTH (WORDS) =    251400
 TTTTTTTTTTTTTTTTTTTTTTTTTTTTTT SHELXG      TELAPSE    10921.81 TCPU     2867.71

 CARTESIAN FORCES (ANALYTICAL)
   ATOM                     X                   Y                   Z
   1  26             1.146105432781E-11  1.874900235066E-11 -9.884941905991E-05
   2  26            -8.010488568762E-11 -3.591645499531E-12 -1.439813418147E-03
   3  26             8.014659306591E-11  3.592570685385E-12  1.080324254597E-03
   4  26            -1.144329075942E-11 -1.870814614335E-11 -1.607219187711E-04
   5   8            -6.494244391164E-05  7.100726243152E-04  8.544724060314E-04
   6   8            -5.824696741015E-04 -4.112780940853E-04  8.544724443010E-04
   7   8             6.474121072744E-04 -2.987945084622E-04  8.544724644229E-04
   8   8             6.816866225978E-05 -7.396702227331E-04 -6.481189060187E-04
   9   8             6.064888371330E-04  4.288708803855E-04 -6.481189442282E-04
  10   8            -6.746574887132E-04  3.107993205404E-04 -6.481189642707E-04

 RESULTANT FORCE     2.336455681706E-16  2.257417343332E-15 -1.143536654258E-12

ATOMIC PART

 SYMMETRY ALLOWED FORCES (ANALYTICAL) (DIRECTION, FORCE)

    1 -1.0419644E-04    2 -1.5388023E-03    3  9.4930274E-04    4 -2.4432269E-04
    5  1.3000819E-03    6  1.7864869E-03    7 -1.7373719E-04    8  1.1807157E-04
    9 -1.2811464E-03

CELL PART

 SYMMETRY ALLOWED FORCES (ANALYTICAL) (DIRECTION, FORCE)

    1  1.8824762E-03    2  9.0308058E-04
 TTTTTTTTTTTTTTTTTTTTTTTTTTTTTT TOTGRA      TELAPSE    11253.10 TCPU     2905.42
 INFORMATION **** optc001 **** GEOMETRY OUTPUT FILE
 CLASSICAL MODEL (SCHLEGEL) USED AS INITIAL HESSIAN MATRIX
 REFERENCE GEOMETRY DEFINED

 MAX GRADIENT      0.001882  THRESHOLD              0.000450 CONVERGED NO
 RMS GRADIENT      0.001139  THRESHOLD              0.000300 CONVERGED NO

 GRADIENT NORM     0.003777  GRADIENT THRESHOLD     0.500000

 PREDICTED ENERGY CHANGE     0.696E-03

 INITIAL DISPLACEMENTS
  0.004492 -0.011644  0.008539 -0.005932  0.022192  0.030148 -0.003217  0.002097
 -0.021116  0.025821  0.101574
 TTTTTTTTTTTTTTTTTTTTTTTTTTTTTT OPTI        TELAPSE    11253.21 TCPU     2905.53

 OPTOPTOPTOPTOPTOPTOPTOPTOPTOPTOPTOPTOPTOPTOPTOPTOPTOPTOPTOPTOPTOPTOPTOPTOPTOPT

 STARTING GEOMETRY OPTIMIZATION - INFORMATION ON SCF MOVED TO SCFOUT.LOG
 GEOMETRY OPTIMIZATION INFORMATION STORED IN OPTINFO.DAT

 OPTOPTOPTOPTOPTOPTOPTOPTOPTOPTOPTOPTOPTOPTOPTOPTOPTOPTOPTOPTOPTOPTOPTOPTOPTOPT
 *******************************************************************************
 COORDINATE AND CELL OPTIMIZATION - POINT    2
 *******************************************************************************
 LATTICE PARAMETERS (ANGSTROMS AND DEGREES) - BOHR = 0.5291772083 ANGSTROM
 PRIMITIVE CELL - CENTRING CODE 7/0 VOLUME=   101.802388 - DENSITY 5.215 g/cm^3
         A              B              C           ALPHA      BETA       GAMMA 
     5.44834988     5.44834988     5.44834988    55.274639  55.274639  55.274639
 *******************************************************************************
 ATOMS IN THE ASYMMETRIC UNIT    6 - ATOMS IN THE UNIT CELL:   10
     ATOM              X/A                 Y/B                 Z/C    
 *******************************************************************************
   1 T  26 FE    3.568646190700E-01  3.568646190701E-01  3.568646190701E-01
   2 T  26 FE1  -1.431627980302E-01 -1.431627980306E-01 -1.431627980306E-01
   3 T  26 FE1   1.431705517955E-01  1.431705517959E-01  1.431705517959E-01
   4 T  26 FE   -3.568363568511E-01 -3.568363568512E-01 -3.568363568512E-01
   5 T   8 O    -4.431814764971E-01 -5.588382489358E-02  2.499097337148E-01
   6 F   8 O     2.499097337149E-01 -4.431814764973E-01 -5.588382489353E-02
   7 F   8 O    -5.588382489315E-02  2.499097337147E-01 -4.431814764974E-01
   8 T   8 O     4.431240444860E-01  5.579836077841E-02 -2.498028535727E-01
   9 F   8 O    -2.498028535728E-01  4.431240444862E-01  5.579836077836E-02
  10 F   8 O     5.579836077798E-02 -2.498028535726E-01  4.431240444863E-01

 TRANSFORMATION MATRIX PRIMITIVE-CRYSTALLOGRAPHIC CELL
  1.0000  0.0000  1.0000 -1.0000  1.0000  1.0000  0.0000 -1.0000  1.0000

 *******************************************************************************
 CRYSTALLOGRAPHIC CELL (VOLUME=        305.40716293)
         A              B              C           ALPHA      BETA       GAMMA 
     5.05468662     5.05468662    13.80257503    90.000000  90.000000 120.000000

 COORDINATES IN THE CRYSTALLOGRAPHIC CELL
     ATOM              X/A                 Y/B                 Z/C    
 *******************************************************************************
   1 T  26 FE    3.333333333333E-01 -3.333333333334E-01  2.353128573673E-02
   2 T  26 FE1   3.287756158591E-13  1.643878040104E-13 -1.431627980305E-01
   3 T  26 FE1  -3.287934546807E-13 -1.643967312595E-13  1.431705517958E-01
   4 T  26 FE   -3.333333333333E-01  3.333333333334E-01 -2.350302351782E-02
   5 T   8 O    -3.601296206051E-01 -3.329615896067E-01 -8.305185589196E-02
   6 F   8 O     3.329615896069E-01 -2.716803099843E-02 -8.305185589196E-02
   7 F   8 O     2.716803099881E-02  3.601296206054E-01 -8.305185589196E-02
   8 T   8 O     3.600841939221E-01  3.328427041366E-01  8.303985056391E-02
   9 F   8 O    -3.328427041367E-01  2.724148978555E-02  8.303985056391E-02
  10 F   8 O    -2.724148978593E-02 -3.600841939224E-01  8.303985056391E-02

 T = ATOM BELONGING TO THE ASYMMETRIC UNIT

 TOTAL ENERGY(DFT)(AU)( 10) -5.5053057370169E+03     DE (AU)    1.493E-04

 SYMMETRY ALLOWED FORCES  (COORDINATE, FORCE)

    1  7.6546657E-04    2  1.5415431E-03    3 -1.1383350E-03    4 -7.3788480E-04
    5 -1.3949306E-03    6 -2.4252376E-03    7 -1.0143532E-03    8 -9.0057481E-04
    9  8.4823370E-04   10 -1.0341817E-02   11 -1.6331413E-03

 GRADIENT NORM     0.011172  GRADIENT THRESHOLD     0.500000

 PREDICTED ENERGY CHANGE    -0.199E-03

 MAX GRADIENT      0.010342  THRESHOLD              0.000450 CONVERGED NO
 RMS GRADIENT      0.003368  THRESHOLD              0.000300 CONVERGED NO
 MAX DISPLAC.      0.061761  THRESHOLD              0.001800 CONVERGED NO
 RMS DISPLAC.      0.021236  THRESHOLD              0.001200 CONVERGED NO
 TTTTTTTTTTTTTTTTTTTTTTTTTTTTTT OPTI        TELAPSE    16665.53 TCPU     4262.76
 *******************************************************************************
 COORDINATE AND CELL OPTIMIZATION - POINT    3
 *******************************************************************************
 LATTICE PARAMETERS (ANGSTROMS AND DEGREES) - BOHR = 0.5291772083 ANGSTROM
 PRIMITIVE CELL - CENTRING CODE 7/0 VOLUME=   101.165302 - DENSITY 5.248 g/cm^3
         A              B              C           ALPHA      BETA       GAMMA 
     5.44724180     5.44724180     5.44724180    55.062532  55.062532  55.062532
 *******************************************************************************
 ATOMS IN THE ASYMMETRIC UNIT    6 - ATOMS IN THE UNIT CELL:   10
     ATOM              X/A                 Y/B                 Z/C    
 *******************************************************************************
   1 T  26 FE    3.567846039449E-01  3.567846039449E-01  3.567846039449E-01
   2 T  26 FE1  -1.429152492147E-01 -1.429152492152E-01 -1.429152492152E-01
   3 T  26 FE1   1.429758197139E-01  1.429758197144E-01  1.429758197144E-01
   4 T  26 FE   -3.567278388999E-01 -3.567278389000E-01 -3.567278389000E-01
   5 T   8 O    -4.433824899798E-01 -5.695785903850E-02  2.502689217285E-01
   6 F   8 O     2.502689217287E-01 -4.433824899799E-01 -5.695785903845E-02
   7 F   8 O    -5.695785903807E-02  2.502689217284E-01 -4.433824899801E-01
   8 T   8 O     4.432840490151E-01  5.686594244434E-02 -2.501958997138E-01
   9 F   8 O    -2.501958997139E-01  4.432840490153E-01  5.686594244429E-02
  10 F   8 O     5.686594244391E-02 -2.501958997137E-01  4.432840490154E-01

 TRANSFORMATION MATRIX PRIMITIVE-CRYSTALLOGRAPHIC CELL
  1.0000  0.0000  1.0000 -1.0000  1.0000  1.0000  0.0000 -1.0000  1.0000

 *******************************************************************************
 CRYSTALLOGRAPHIC CELL (VOLUME=        303.49590596)
         A              B              C           ALPHA      BETA       GAMMA 
     5.03578532     5.03578532    13.81935556    90.000000  90.000000 120.000000

 COORDINATES IN THE CRYSTALLOGRAPHIC CELL
     ATOM              X/A                 Y/B                 Z/C    
 *******************************************************************************
   1 T  26 FE    3.333333333333E-01 -3.333333333334E-01  2.345127061158E-02
   2 T  26 FE1   3.282068688897E-13  1.641034321891E-13 -1.429152492150E-01
   3 T  26 FE1  -3.283459908168E-13 -1.641729976642E-13  1.429758197142E-01
   4 T  26 FE   -3.333333333333E-01  3.333333333334E-01 -2.339450556660E-02
   5 T   8 O    -3.600253475498E-01 -3.336260641584E-01 -8.335714242991E-02
   6 F   8 O     3.336260641586E-01 -2.639928339146E-02 -8.335714242990E-02
   7 F   8 O     2.639928339184E-02  3.600253475502E-01 -8.335714242991E-02
   8 T   8 O     3.599660184332E-01  3.335139302957E-01  8.331803058188E-02
   9 F   8 O    -3.335139302958E-01  2.645208813759E-02  8.331803058188E-02
  10 F   8 O    -2.645208813797E-02 -3.599660184336E-01  8.331803058188E-02

 T = ATOM BELONGING TO THE ASYMMETRIC UNIT

 TOTAL ENERGY(DFT)(AU)(  7) -5.5053059358185E+03     DE (AU)   -1.988E-04

 SYMMETRY ALLOWED FORCES  (COORDINATE, FORCE)

    1  1.6403835E-04    2 -3.6813887E-04    3  1.6740795E-04    4 -3.5560369E-04
    5  1.5113800E-04    6  1.4358323E-04    7 -4.2576858E-04    8 -1.8446068E-04
    9 -3.9321516E-04   10 -6.2576865E-04   11 -2.5768626E-05

 GRADIENT NORM     0.001060  GRADIENT THRESHOLD     0.500000

 PREDICTED ENERGY CHANGE    -0.127E-05

 MAX GRADIENT      0.000626  THRESHOLD              0.000450 CONVERGED NO
 RMS GRADIENT      0.000319  THRESHOLD              0.000300 CONVERGED NO
 MAX DISPLAC.      0.001672  THRESHOLD              0.001800 CONVERGED YES
 RMS DISPLAC.      0.000940  THRESHOLD              0.001200 CONVERGED YES
 TTTTTTTTTTTTTTTTTTTTTTTTTTTTTT OPTI        TELAPSE    21219.03 TCPU     5370.37
 *******************************************************************************
 COORDINATE AND CELL OPTIMIZATION - POINT    4
 *******************************************************************************
 LATTICE PARAMETERS (ANGSTROMS AND DEGREES) - BOHR = 0.5291772083 ANGSTROM
 PRIMITIVE CELL - CENTRING CODE 7/0 VOLUME=   101.135955 - DENSITY 5.249 g/cm^3
         A              B              C           ALPHA      BETA       GAMMA 
     5.44643608     5.44643608     5.44643608    55.068263  55.068263  55.068263
 *******************************************************************************
 ATOMS IN THE ASYMMETRIC UNIT    6 - ATOMS IN THE UNIT CELL:   10
     ATOM              X/A                 Y/B                 Z/C    
 *******************************************************************************
   1 T  26 FE    3.568041213212E-01  3.568041213213E-01  3.568041213213E-01
   2 T  26 FE1  -1.429482269654E-01 -1.429482269659E-01 -1.429482269659E-01
   3 T  26 FE1   1.429997116793E-01  1.429997116798E-01  1.429997116798E-01
   4 T  26 FE   -3.567547872071E-01 -3.567547872072E-01 -3.567547872072E-01
   5 T   8 O    -4.433390739390E-01 -5.687631835159E-02  2.501835033542E-01
   6 F   8 O     2.501835033544E-01 -4.433390739392E-01 -5.687631835154E-02
   7 F   8 O    -5.687631835116E-02  2.501835033541E-01 -4.433390739394E-01
   8 T   8 O     4.432546166793E-01  5.679551018615E-02 -2.501190567568E-01
   9 F   8 O    -2.501190567570E-01  4.432546166795E-01  5.679551018610E-02
  10 F   8 O     5.679551018572E-02 -2.501190567567E-01  4.432546166796E-01

 TRANSFORMATION MATRIX PRIMITIVE-CRYSTALLOGRAPHIC CELL
  1.0000  0.0000  1.0000 -1.0000  1.0000  1.0000  0.0000 -1.0000  1.0000

 *******************************************************************************
 CRYSTALLOGRAPHIC CELL (VOLUME=        303.40786465)
         A              B              C           ALPHA      BETA       GAMMA 
     5.03552350     5.03552350    13.81678337    90.000000  90.000000 120.000000

 COORDINATES IN THE CRYSTALLOGRAPHIC CELL
     ATOM              X/A                 Y/B                 Z/C    
 *******************************************************************************
   1 T  26 FE    3.333333333333E-01 -3.333333333334E-01  2.347078798792E-02
   2 T  26 FE1   3.282842671557E-13  1.641421305113E-13 -1.429482269658E-01
   3 T  26 FE1  -3.284025266933E-13 -1.642012664132E-13  1.429997116796E-01
   4 T  26 FE   -3.333333333333E-01  3.333333333334E-01 -2.342145387387E-02
   5 T   8 O    -3.599951109602E-01 -3.335274663330E-01 -8.334396297880E-02
   6 F   8 O     3.335274663332E-01 -2.646764462726E-02 -8.334396297880E-02
   7 F   8 O     2.646764462764E-02  3.599951109606E-01 -8.334396297880E-02
   8 T   8 O     3.599442599764E-01  3.334294134597E-01  8.331035670286E-02
   9 F   8 O    -3.334294134598E-01  2.651484651676E-02  8.331035670286E-02
  10 F   8 O    -2.651484651714E-02 -3.599442599767E-01  8.331035670286E-02

 T = ATOM BELONGING TO THE ASYMMETRIC UNIT

 TOTAL ENERGY(DFT)(AU)(  7) -5.5053059381095E+03     DE (AU)   -2.291E-06

 SYMMETRY ALLOWED FORCES  (COORDINATE, FORCE)

    1  1.3731117E-04    2 -2.7626773E-04    3  1.1393734E-04    4 -3.0078988E-04
    5  9.9447957E-05    6  4.6731702E-05    7 -2.8430059E-04    8 -1.4525445E-04
    9 -2.2154842E-04   10 -4.1650785E-04   11 -6.1363430E-05

 GRADIENT NORM     0.000734  GRADIENT THRESHOLD     0.500000

 PREDICTED ENERGY CHANGE    -0.174E-05

 MAX GRADIENT      0.000417  THRESHOLD              0.000450 CONVERGED YES
 RMS GRADIENT      0.000221  THRESHOLD              0.000300 CONVERGED YESs
 MAX DISPLAC.      0.002109  THRESHOLD              0.001800 CONVERGED NO
 RMS DISPLAC.      0.001505  THRESHOLD              0.001200 CONVERGED NO
 TTTTTTTTTTTTTTTTTTTTTTTTTTTTTT OPTI        TELAPSE    25884.95 TCPU     6510.38
 *******************************************************************************
 COORDINATE AND CELL OPTIMIZATION - POINT    5
 *******************************************************************************
[...]
   9 F   8 O    -3.332844180163E-01  2.660229616197E-02  8.330592574130E-02
  10 F   8 O    -2.660229616235E-02 -3.598867141784E-01  8.330592574130E-02

 T = ATOM BELONGING TO THE ASYMMETRIC UNIT

 TOTAL ENERGY(DFT)(AU)(  7) -5.5053059391240E+03     DE (AU)   -1.015E-06

 SYMMETRY ALLOWED FORCES  (COORDINATE, FORCE)

    1  6.3894548E-05    2 -1.5249326E-04    3  5.2995104E-05    4 -1.7110430E-04
    5 -3.6698555E-05    6 -6.1347330E-05    7 -5.3128915E-05    8 -2.6523667E-05
    9  1.4383231E-05   10  4.2682918E-04   11 -4.1718871E-05

 GRADIENT NORM     0.000502  GRADIENT THRESHOLD     0.500000

 PREDICTED ENERGY CHANGE    -0.232E-06

 MAX GRADIENT      0.000427  THRESHOLD              0.000450 CONVERGED YES
 RMS GRADIENT      0.000151  THRESHOLD              0.000300 CONVERGED YES
 MAX DISPLAC.      0.000761  THRESHOLD              0.001800 CONVERGED YES
 RMS DISPLAC.      0.000381  THRESHOLD              0.001200 CONVERGED YES

 CONVERGENCE TESTS SATISFIED AFTER   5 ENERGY AND GRADIENT CALCULATIONS

 ******************************************************************
 * OPT END - CONVERGED * E(AU):  -5.505305939124E+03  POINTS    5 *
 ******************************************************************


 NEIGHBORS OF THE NON-EQUIVALENT ATOMS

 N = NUMBER OF NEIGHBORS AT DISTANCE R
    ATOM  N     R/ANG      R/AU   NEIGHBORS (ATOM LABELS AND CELL INDICES)
   1 FE   3     1.9343     3.6553   8 O   -1 0 1   9 O    0 0 0  10 O   -1 1 0
   1 FE   3     2.1362     4.0368   5 O    0 0 0   6 O   -1 1 0   7 O   -1 0 1
   1 FE   1     2.9534     5.5810   3 FE  -1 0 0
   1 FE   3     2.9782     5.6280   4 FE  -1 0 1   4 FE  -1 1 0   4 FE  -2 1 1
   1 FE   3     3.3430     6.3173   3 FE   0 0 0   3 FE  -1 0 1   3 FE  -1 1 0
   1 FE   3     3.3933     6.4124   8 O   -1 1 0   9 O   -1 0 1  10 O    0 0 0

   2 FE   3     1.9336     3.6539   5 O    0 0 0   6 O    0 0 0   7 O    0 0 0
   2 FE   3     2.1378     4.0398   8 O   -1 0 0   9 O    0-1 0  10 O    0 0-1
   2 FE   1     2.9534     5.5810   4 FE  -1 0 0
   2 FE   3     2.9791     5.6296   3 FE   0-1 0   3 FE   0 0-1   3 FE  -1 0 0
   2 FE   3     3.3430     6.3173   4 FE   0 0 0   4 FE  -1 0 1   4 FE  -1 1 0
   2 FE   3     3.3931     6.4121   5 O    1 0-1   6 O   -1 1 0   7 O    0-1 1

   3 FE   3     1.9337     3.6541   8 O    0 0 0   9 O    0 0 0  10 O    0 0 0
   3 FE   3     2.1373     4.0389   5 O    1 0 0   6 O    0 1 0   7 O    0 0 1
   3 FE   1     2.9534     5.5810   1 FE   1 0 0
   3 FE   3     2.9791     5.6296   2 FE   0 1 0   2 FE   0 0 1   2 FE   1 0 0
   3 FE   3     3.3430     6.3173   1 FE   0 0 0   1 FE   1 0-1   1 FE   1-1 0
   3 FE   3     3.3935     6.4128   8 O   -1 0 1   9 O    1-1 0  10 O    0 1-1

   4 FE   3     1.9344     3.6555   5 O    1 0-1   6 O    0 0 0   7 O    1-1 0
   4 FE   3     2.1357     4.0358   8 O    0 0 0   9 O    1-1 0  10 O    1 0-1
   4 FE   1     2.9534     5.5810   2 FE   1 0 0
   4 FE   3     2.9782     5.6280   1 FE   1 0-1   1 FE   1-1 0   1 FE   2-1-1
   4 FE   3     3.3430     6.3173   2 FE   0 0 0   2 FE   1 0-1   2 FE   1-1 0
   4 FE   3     3.3937     6.4132   5 O    1-1 0   6 O    1 0-1   7 O    0 0 0

   5 O    1     1.9336     3.6539   2 FE   0 0 0
   5 O    1     1.9344     3.6555   4 FE  -1 0 1
   5 O    1     2.1362     4.0368   1 FE   0 0 0
   5 O    1     2.1373     4.0389   3 FE  -1 0 0
   5 O    2     2.6749     5.0548   6 O   -1 1 0   7 O   -1 0 1
   5 O    1     2.7817     5.2566   8 O   -1 0 1

   8 O    1     1.9337     3.6541   3 FE   0 0 0
   8 O    1     1.9343     3.6553   1 FE   1 0-1
   8 O    1     2.1357     4.0358   4 FE   0 0 0
   8 O    1     2.1378     4.0398   2 FE   1 0 0
   8 O    2     2.6749     5.0548   9 O    1-1 0  10 O    1 0-1
   8 O    1     2.7817     5.2566   5 O    1 0-1

 MMMMMMMMMMMMMMMMMMMMMMMMMMMMMMMMMMMMMMMMMMMMMMMMMMMMMMMMMMMMMMMMMMMMMMMMMMMMMMM
     ALPHA+BETA ELECTRONS
 MULLIKEN POPULATION ANALYSIS - NO. OF ELECTRONS  152.000000

  ATOM    Z CHARGE  A.O. POPULATION

   1 FE  26 23.991  2.000  1.920  2.057  2.057  2.057  0.384  0.674  0.674
                    0.672  0.880  0.910  0.910  0.904  0.904  1.262  0.940
                    0.940  0.940  0.468  0.349  0.349  0.349  0.267  0.281
                    0.281  0.281  0.281
   2 FE  26 23.991  2.000  1.920  2.057  2.057  2.057  0.384  0.674  0.674
                    0.672  0.880  0.910  0.910  0.904  0.904  1.262  0.940
                    0.940  0.940  0.468  0.349  0.349  0.349  0.267  0.281
                    0.281  0.281  0.281
   3 FE  26 23.991  2.000  1.920  2.057  2.057  2.057  0.384  0.674  0.674
                    0.672  0.880  0.910  0.910  0.904  0.904  1.262  0.940
                    0.940  0.940  0.468  0.349  0.349  0.349  0.267  0.281
                    0.281  0.281  0.281
   4 FE  26 23.991  2.000  1.920  2.057  2.057  2.057  0.384  0.674  0.674
                    0.672  0.880  0.910  0.910  0.904  0.904  1.262  0.940
                    0.940  0.940  0.468  0.349  0.349  0.349  0.267  0.281
                    0.281  0.281  0.281
   5 O    8  9.339  1.999  0.508  0.717  0.726  0.722  0.919  0.465  0.474
                    0.466  0.572  0.593  0.583  0.596
   6 O    8  9.339  1.999  0.508  0.730  0.713  0.722  0.919  0.478  0.461
                    0.466  0.572  0.578  0.598  0.596
   7 O    8  9.339  1.999  0.508  0.718  0.726  0.722  0.919  0.465  0.474
                    0.466  0.572  0.593  0.583  0.596
   8 O    8  9.339  1.999  0.508  0.717  0.726  0.722  0.919  0.465  0.474
                    0.466  0.572  0.593  0.583  0.596
   9 O    8  9.339  1.999  0.508  0.730  0.713  0.722  0.919  0.478  0.461
                    0.466  0.572  0.578  0.598  0.596
  10 O    8  9.339  1.999  0.508  0.718  0.726  0.722  0.919  0.465  0.474
                    0.466  0.572  0.593  0.583  0.596

  ATOM    Z CHARGE  SHELL POPULATION

   1 FE  26 23.991  2.000  8.092  2.404  4.509  4.082  1.515  1.390
   2 FE  26 23.991  2.000  8.092  2.404  4.509  4.082  1.515  1.390
   3 FE  26 23.991  2.000  8.092  2.404  4.509  4.082  1.515  1.390
   4 FE  26 23.991  2.000  8.091  2.404  4.509  4.082  1.515  1.390
   5 O    8  9.339  1.999  2.673  2.325  2.343
   6 O    8  9.339  1.999  2.673  2.325  2.343
   7 O    8  9.339  1.999  2.673  2.325  2.343
   8 O    8  9.339  1.999  2.673  2.325  2.343
   9 O    8  9.339  1.999  2.673  2.325  2.343
  10 O    8  9.339  1.999  2.673  2.325  2.343

 OVERLAP POPULATION CONDENSED TO ATOMS FOR FIRST   6 NEIGHBORS

 ATOM A   1 FE   ATOM B     CELL      R(AB)/AU R(AB)/ANG    OVPOP(AB)
                  8 O    ( -1  0  1)     3.655     1.934     0.028
                  5 O    (  0  0  0)     4.037     2.136     0.019
                  3 FE   ( -1  0  0)     5.581     2.953     0.000
                  4 FE   ( -1  0  1)     5.628     2.978     0.000
                  3 FE   (  0  0  0)     6.317     3.343     0.000
                  8 O    ( -1  1  0)     6.412     3.393     0.000

 ATOM A   2 FE   ATOM B     CELL      R(AB)/AU R(AB)/ANG    OVPOP(AB)
                  5 O    (  0  0  0)     3.654     1.934     0.028
                  8 O    ( -1  0  0)     4.040     2.138     0.019
                  4 FE   ( -1  0  0)     5.581     2.953     0.000
                  3 FE   (  0 -1  0)     5.630     2.979     0.000
                  4 FE   (  0  0  0)     6.317     3.343     0.000
                  5 O    (  1  0 -1)     6.412     3.393     0.000

 ATOM A   3 FE   ATOM B     CELL      R(AB)/AU R(AB)/ANG    OVPOP(AB)
                  8 O    (  0  0  0)     3.654     1.934     0.028
                  5 O    (  1  0  0)     4.039     2.137     0.019
                  1 FE   (  1  0  0)     5.581     2.953     0.000
                  2 FE   (  0  1  0)     5.630     2.979     0.000
                  1 FE   (  0  0  0)     6.317     3.343     0.000
                  8 O    ( -1  0  1)     6.413     3.394     0.000

 ATOM A   4 FE   ATOM B     CELL      R(AB)/AU R(AB)/ANG    OVPOP(AB)
                  5 O    (  1  0 -1)     3.656     1.934     0.028
                  8 O    (  0  0  0)     4.036     2.136     0.019
                  2 FE   (  1  0  0)     5.581     2.953     0.000
                  1 FE   (  1  0 -1)     5.628     2.978     0.000
                  2 FE   (  0  0  0)     6.317     3.343     0.000
                  5 O    (  1 -1  0)     6.413     3.394     0.000

 ATOM A   5 O    ATOM B     CELL      R(AB)/AU R(AB)/ANG    OVPOP(AB)
                  2 FE   (  0  0  0)     3.654     1.934     0.028
                  4 FE   ( -1  0  1)     3.656     1.934     0.028
                  1 FE   (  0  0  0)     4.037     2.136     0.019
                  3 FE   ( -1  0  0)     4.039     2.137     0.019
                  6 O    ( -1  1  0)     5.055     2.675    -0.025
                  8 O    ( -1  0  1)     5.257     2.782     0.001

 ATOM A   8 O    ATOM B     CELL      R(AB)/AU R(AB)/ANG    OVPOP(AB)
                  3 FE   (  0  0  0)     3.654     1.934     0.028
                  1 FE   (  1  0 -1)     3.655     1.934     0.028
                  4 FE   (  0  0  0)     4.036     2.136     0.019
                  2 FE   (  1  0  0)     4.040     2.138     0.019
                  9 O    (  1 -1  0)     5.055     2.675    -0.025
                  5 O    (  1  0 -1)     5.257     2.782     0.001
 MMMMMMMMMMMMMMMMMMMMMMMMMMMMMMMMMMMMMMMMMMMMMMMMMMMMMMMMMMMMMMMMMMMMMMMMMMMMMMM
     ALPHA-BETA ELECTRONS
 MULLIKEN POPULATION ANALYSIS - NO. OF ELECTRONS    0.000000

  ATOM    Z CHARGE  A.O. POPULATION

   1 FE  26  3.818  0.000  0.002 -0.001 -0.001 -0.001  0.001  0.006  0.006
                    0.006  0.675  0.622  0.622  0.627  0.627  0.008  0.006
                    0.006  0.006 -0.003 -0.007 -0.007 -0.007  0.153  0.113
                    0.113  0.123  0.123
   2 FE  26 -3.818  0.000 -0.002  0.001  0.001  0.001 -0.001 -0.006 -0.006
                   -0.006 -0.675 -0.622 -0.622 -0.627 -0.627 -0.008 -0.006
                   -0.006 -0.006  0.003  0.007  0.007  0.007 -0.153 -0.113
                   -0.113 -0.123 -0.123
   3 FE  26 -3.817  0.000 -0.002  0.001  0.001  0.001 -0.001 -0.006 -0.006
                   -0.006 -0.675 -0.622 -0.622 -0.627 -0.627 -0.008 -0.006
                   -0.006 -0.006  0.003  0.007  0.007  0.007 -0.153 -0.113
                   -0.113 -0.123 -0.123
   4 FE  26  3.818  0.000  0.002 -0.001 -0.001 -0.001  0.001  0.006  0.006
                    0.006  0.675  0.622  0.622  0.627  0.627  0.008  0.006
                    0.006  0.006 -0.003 -0.007 -0.007 -0.007  0.153  0.113
                    0.113  0.123  0.123
   5 O    8  0.000  0.000  0.000 -0.001  0.001  0.000  0.000  0.007 -0.007
                    0.000  0.000 -0.017  0.017  0.000
   6 O    8  0.000  0.000  0.000  0.000  0.000  0.000  0.000  0.000  0.000
                    0.000  0.000  0.000  0.000  0.000
   7 O    8  0.000  0.000  0.000  0.001 -0.001  0.000  0.000 -0.007  0.007
                    0.000  0.000  0.017 -0.017  0.000
   8 O    8  0.000  0.000  0.000 -0.001  0.001  0.000  0.000  0.007 -0.007
                    0.000  0.000 -0.017  0.017  0.000
   9 O    8  0.000  0.000  0.000  0.000  0.000  0.000  0.000  0.000  0.000
                    0.000  0.000  0.000  0.000  0.000
  10 O    8  0.000  0.000  0.000  0.001 -0.001  0.000  0.000 -0.007  0.007
                    0.000  0.000  0.017 -0.017  0.000

  ATOM    Z CHARGE  SHELL POPULATION

   1 FE  26  3.818  0.000 -0.001  0.018  3.174  0.026 -0.026  0.626
   2 FE  26 -3.818  0.000  0.001 -0.018 -3.174 -0.026  0.026 -0.626
   3 FE  26 -3.817  0.000  0.001 -0.018 -3.174 -0.026  0.026 -0.626
   4 FE  26  3.818  0.000 -0.001  0.018  3.174  0.026 -0.026  0.626
   5 O    8  0.000  0.000  0.000  0.000  0.000
   6 O    8  0.000  0.000  0.000  0.000  0.000
   7 O    8  0.000  0.000  0.000  0.000  0.000
   8 O    8  0.000  0.000  0.000  0.000  0.000
   9 O    8  0.000  0.000  0.000  0.000  0.000
  10 O    8  0.000  0.000  0.000  0.000  0.000

 OVERLAP POPULATION CONDENSED TO ATOMS FOR FIRST   6 NEIGHBORS

 ATOM A   1 FE   ATOM B     CELL      R(AB)/AU R(AB)/ANG    OVPOP(AB)hem_bulk_PBE.out
                  8 O    ( -1  0  1)     3.655     1.934    -0.045
                  5 O    (  0  0  0)     4.037     2.136    -0.018
                  3 FE   ( -1  0  0)     5.581     2.953     0.000
                  4 FE   ( -1  0  1)     5.628     2.978     0.000
                  3 FE   (  0  0  0)     6.317     3.343     0.000
                  8 O    ( -1  1  0)     6.412     3.393     0.000

 ATOM A   2 FE   ATOM B     CELL      R(AB)/AU R(AB)/ANG    OVPOP(AB)
                  5 O    (  0  0  0)     3.654     1.934     0.045
                  8 O    ( -1  0  0)     4.040     2.138     0.017
                  4 FE   ( -1  0  0)     5.581     2.953     0.000
                  3 FE   (  0 -1  0)     5.630     2.979     0.000
                  4 FE   (  0  0  0)     6.317     3.343     0.000
                  5 O    (  1  0 -1)     6.412     3.393     0.000

 ATOM A   3 FE   ATOM B     CELL      R(AB)/AU R(AB)/ANG    OVPOP(AB)
                  8 O    (  0  0  0)     3.654     1.934     0.045
                  5 O    (  1  0  0)     4.039     2.137     0.018
                  1 FE   (  1  0  0)     5.581     2.953     0.000
                  2 FE   (  0  1  0)     5.630     2.979     0.000
                  1 FE   (  0  0  0)     6.317     3.343     0.000
                  8 O    ( -1  0  1)     6.413     3.394     0.000

 ATOM A   4 FE   ATOM B     CELL      R(AB)/AU R(AB)/ANG    OVPOP(AB)
                  5 O    (  1  0 -1)     3.656     1.934    -0.045
                  8 O    (  0  0  0)     4.036     2.136    -0.018
                  2 FE   (  1  0  0)     5.581     2.953     0.000
                  1 FE   (  1  0 -1)     5.628     2.978     0.000
                  2 FE   (  0  0  0)     6.317     3.343     0.000
                  5 O    (  1 -1  0)     6.413     3.394     0.000

 ATOM A   5 O    ATOM B     CELL      R(AB)/AU R(AB)/ANG    OVPOP(AB)
                  2 FE   (  0  0  0)     3.654     1.934     0.045
                  4 FE   ( -1  0  1)     3.656     1.934    -0.045
                  1 FE   (  0  0  0)     4.037     2.136    -0.018
                  3 FE   ( -1  0  0)     4.039     2.137     0.018
                  6 O    ( -1  1  0)     5.055     2.675     0.000
                  8 O    ( -1  0  1)     5.257     2.782    -0.004

 ATOM A   8 O    ATOM B     CELL      R(AB)/AU R(AB)/ANG    OVPOP(AB)
                  3 FE   (  0  0  0)     3.654     1.934     0.045
                  1 FE   (  1  0 -1)     3.655     1.934    -0.045
                  4 FE   (  0  0  0)     4.036     2.136    -0.018
                  2 FE   (  1  0  0)     4.040     2.138     0.017
                  9 O    (  1 -1  0)     5.055     2.675     0.000
                  5 O    (  1  0 -1)     5.257     2.782    -0.004
 EIGENVECTORS IN FORTRAN UNIT  8

 FINAL OPTIMIZED GEOMETRY - DIMENSIONALITY OF THE SYSTEM      3
 (NON PERIODIC DIRECTION: LATTICE PARAMETER FORMALLY SET TO 500)
 *******************************************************************************
 LATTICE PARAMETERS (ANGSTROMS AND DEGREES) - BOHR = 0.5291772083 ANGSTROM
 PRIMITIVE CELL - CENTRING CODE 7/0 VOLUME=   101.072440 - DENSITY 5.253 g/cm^3
         A              B              C           ALPHA      BETA       GAMMA 
     5.44533688     5.44533688     5.44533688    55.067417  55.067417  55.067417
 *******************************************************************************
 ATOMS IN THE ASYMMETRIC UNIT    6 - ATOMS IN THE UNIT CELL:   10
     ATOM              X/A                 Y/B                 Z/C    
 *******************************************************************************
   1 T  26 FE    3.568442544033E-01  3.568442544034E-01  3.568442544034E-01
   2 T  26 FE1  -1.430195921397E-01 -1.430195921402E-01 -1.430195921402E-01
   3 T  26 FE1   1.430507305436E-01  1.430507305441E-01  1.430507305441E-01
   4 T  26 FE   -3.568128970552E-01 -3.568128970553E-01 -3.568128970553E-01
   5 T   8 O    -4.432426672375E-01 -5.675473583940E-02  2.500171301010E-01
   6 F   8 O     2.500171301012E-01 -4.432426672377E-01 -5.675473583935E-02
   7 F   8 O    -5.675473583897E-02  2.500171301009E-01 -4.432426672379E-01
   8 T   8 O     4.431926399194E-01  5.670362957939E-02 -2.499784922748E-01
   9 F   8 O    -2.499784922750E-01  4.431926399196E-01  5.670362957934E-02
  10 F   8 O     5.670362957896E-02 -2.499784922747E-01  4.431926399197E-01

 TRANSFORMATION MATRIX PRIMITIVE-CRYSTALLOGRAPHIC CELL
  1.0000  0.0000  1.0000 -1.0000  1.0000  1.0000  0.0000 -1.0000  1.0000

 *******************************************************************************
 CRYSTALLOGRAPHIC CELL (VOLUME=        303.21732051)
         A              B              C           ALPHA      BETA       GAMMA 
     5.03443590     5.03443590    13.81407288    90.000000  90.000000 120.000000

 COORDINATES IN THE CRYSTALLOGRAPHIC CELL
     ATOM              X/A                 Y/B                 Z/C    
 *******************************************************************************
   1 T  26 FE    3.333333333333E-01 -3.333333333334E-01  2.351092107006E-02
   2 T  26 FE1   3.284420329740E-13  1.642210117363E-13 -1.430195921400E-01
   3 T  26 FE1  -3.285135700594E-13 -1.642567897804E-13  1.430507305440E-01
   4 T  26 FE   -3.333333333333E-01  3.333333333334E-01 -2.347956372197E-02
   5 T   8 O    -3.599159095789E-01 -3.333438877597E-01 -8.332675765863E-02
   6 F   8 O     3.333438877598E-01 -2.657202181928E-02 -8.332675765863E-02
   7 F   8 O     2.657202181966E-02  3.599159095792E-01 -8.332675765863E-02
   8 T   8 O     3.598867141781E-01  3.332844180161E-01  8.330592574130E-02
   9 F   8 O    -3.332844180163E-01  2.660229616197E-02  8.330592574130E-02
  10 F   8 O    -2.660229616235E-02 -3.598867141784E-01  8.330592574130E-02

 T = ATOM BELONGING TO THE ASYMMETRIC UNIT
 INFORMATION **** fort.34 **** GEOMETRY OUTPUT FILE

 DIRECT LATTICE VECTORS CARTESIAN COMPONENTS (ANGSTROM)
          X                    Y                    Z
   0.290663292155E+01   0.000000000000E+00   0.460469095849E+01
  -0.145331646077E+01   0.251721794953E+01   0.460469095849E+01
  -0.145331646077E+01  -0.251721794953E+01   0.460469095849E+01


 CARTESIAN COORDINATES - PRIMITIVE CELL
 *******************************************************************************
 *      ATOM          X(ANGSTROM)         Y(ANGSTROM)         Z(ANGSTROM)
 *******************************************************************************
   1    26 FE   -2.906632921544E+00 -2.391691838823E-20  3.247815770312E-01
   2    26 FE1  -5.888186559790E-17 -2.391691838823E-20 -1.975683068442E+00
   3    26 FE1   5.877140194701E-17 -2.391691838823E-20  1.976113216624E+00
   4    26 FE    2.906632921544E+00 -2.391691838823E-20 -3.243484043395E-01
   5     8 O    -1.569215147655E+00 -7.722116473568E-01 -1.151081902773E+00
   6     8 O     1.453362477537E+00 -9.728743581937E-01 -1.151081902773E+00
   7     8 O     1.158526701187E-01  1.745086005550E+00 -1.151081902773E+00
   8     8 O     1.569087857185E+00  7.719857419322E-01  1.150794129149E+00
   9     8 O    -1.453103192465E+00  9.728770741255E-01  1.150794129149E+00
  10     8 O    -1.159846647204E-01 -1.744862816058E+00  1.150794129149E+00

 ****   3 SYMMOPS - TRANSLATORS IN FRACTIONARY UNITS
  V INV                   ROTATION MATRICES                       TRANSLATOR
  1  1  1.00  0.00  0.00  0.00  1.00  0.00  0.00  0.00  1.00    0.00  0.00  0.00
  2  3  0.00  0.00  1.00  1.00  0.00  0.00  0.00  1.00  0.00    0.00  0.00  0.00
  3  2  0.00  1.00  0.00  0.00  0.00  1.00  1.00  0.00  0.00    0.00  0.00  0.00
 TTTTTTTTTTTTTTTTTTTTTTTTTTTTTT END         TELAPSE    30444.07 TCPU     7650.95
 EEEEEEEEEE TERMINATION  DATE 19 02 2009 TIME 17:10:44.1
NODE    0 CPU TIME =      7650.950
NODE    1 CPU TIME =      7830.190
    TOTAL CPU TIME =     15481.140
FORTRAN STOP
FORTRAN STOP
Thu Feb 19 17:10:44 GMT 2009
