Ferroelectric ordered ice in Cmc21 setting, expt'l. geometry
CRYSTAL
0 0 0
36
4.523   7.834066        7.367
5
8   0.00000000  -0.333333       -0.4371
8   0.50000000  -0.166667       -0.5629
1   0.50000000  -0.166667       -0.6989
1   0.50000000  -0.044900       -0.5182
1   0.18265000  -0.272450       -0.4818
OPTGEOM
FULLOPTG
ENDOPT
END
8  2
1  0  3  2.0  0.0
1  1  3  6.0  0.0
1 1
1  0  3  1.0  0.0
99   0
ENDBS
SHRINK
2 2
FMIXING
30
ENDSCF
         
 *******************************************************************************
 *                                                                             *
 *                                CRYSTAL06                                    *
 *                          develop 1.0 - cvs090524                            *
 *                          Sequential executable                              *
 *                                                                             *
 *            Compiled:  20 Jan 2010 10:29                                     *
 *            Xmake: Linux-ifort_pentium4                                      *
 *                                                                             *
 *                                                                             *
 *                              MAIN AUTHORS                                   *
 *                                                                             *
 *    R. DOVESI(1,10), V.R. SAUNDERS(2), C. ROETTI(1,10), R. ORLANDO (1,3),    *
 *  C.M. ZICOVICH-WILSON(1,4), F. PASCALE(5), B. CIVALLERI(1,10), K. DOLL(6),  *
 *       N.M. HARRISON(2,7), I. J. BUSH(2), Ph. D'ARCO(8), M. LLUNELL(9)       *
 *                                                                             *
 * (1) THEORETICAL CHEMISTRY GROUP - UNIVERSITA' DI TORINO - TORINO (ITALY)    *
 *      http://www.crystal.unito.it                                            *
 * (2) COMPUTATIONAL SCIENCE & ENGINEERING DEPARTMENT - CCLRC DARESBURY (UK)   *
 *     http://www.cse.clrc.ac.uk/cmg/CRYSTAL/                                  *
 * (3) UNIVERSITA' DEL PIEMONTE ORIENTALE - ALESSANDRIA (ITALY)                *
 * (4) UNIVERSIDAD AUTONOMA DEL ESTADO DE MORELOS - CUERNAVACA (MEXICO)        *
 * (5) UNIVERSITE' HENRI POINCARE' - NANCY (FRANCE)                            *
 * (6) MPI FUER FESTKOERPERFORSCHUNG - STUTTGART (GERMANY)                     *
 * (7) IMPERIAL COLLEGE - LONDON (UK)                                          *
 * (8) UNIVERSITE' PIERRE ET MARIE CURIE - PARIS (FRANCE)                      *
 * (9) UNIVERSIDAD DE BARCELONA - BARCELONA (SPAIN)                            *
 *(10) NIS - NANOSTRUCTURED INTERFACES AND SURFACES - TORINO (ITALY)           *
 *     http://www.crystal.unito.it                                             *
 *******************************************************************************
 EEEEEEEEEE STARTING  DATE 23 02 2010 TIME 10:06:03.6
 Ferroelectric ordered ice in Cmc21 setting, expt'l. geometry                    

 CRYSTAL CALCULATION
 (INPUT ACCORDING TO THE INTERNATIONAL TABLES FOR X-RAY CRYSTALLOGRAPHY)
 CRYSTAL FAMILY                       :  ORTHORHOMBIC
 CRYSTAL CLASS  (GROTH - 1921)        :  ORTHORHOMBIC PYRAMIDAL               

 SPACE GROUP (NONCENTROSYMMETRIC)     :  C M C 21        

 LATTICE PARAMETERS  (ANGSTROMS AND DEGREES) - CONVENTIONAL CELL
        A           B           C        ALPHA        BETA       GAMMA
     4.52300     7.83407     7.36700    90.00000    90.00000    90.00000


 NUMBER OF IRREDUCIBLE ATOMS IN THE CONVENTIONAL CELL:    5

 INPUT COORDINATES

 ATOM AT. N.              COORDINATES
   1   8     0.000000000000E+00 -3.333330000000E-01 -4.371000000000E-01
   2   8     5.000000000000E-01 -1.666670000000E-01 -5.629000000000E-01
   3   1     5.000000000000E-01 -1.666670000000E-01 -6.989000000000E-01
   4   1     5.000000000000E-01 -4.490000000000E-02 -5.182000000000E-01
   5   1     1.826500000000E-01 -2.724500000000E-01 -4.818000000000E-01

 *******************************************************************************

 << INFORMATION >>: FROM NOW ON, ALL COORDINATES REFER TO THE PRIMITIVE CELL

 *******************************************************************************

 LATTICE PARAMETERS  (ANGSTROMS AND DEGREES) - PRIMITIVE CELL
       A          B          C         ALPHA     BETA     GAMMA        VOLUME
    4.52300    4.52300    7.36700    90.00000  90.00000  60.00000    130.519225

 COORDINATES OF THE EQUIVALENT ATOMS (FRACTIONARY UNITS)

 N. ATOM EQUIV AT. N.          X                  Y                  Z

   1   1   1    8 O    -3.33333000000E-01 -3.33333000000E-01 -4.37100000000E-01
   2   1   2    8 O     3.33333000000E-01  3.33333000000E-01  6.29000000000E-02

   3   2   1    8 O     3.33333000000E-01  3.33333000000E-01  4.37100000000E-01
   4   2   2    8 O    -3.33333000000E-01 -3.33333000000E-01 -6.29000000000E-02

   5   3   1    1 H     3.33333000000E-01  3.33333000000E-01  3.01100000000E-01
   6   3   2    1 H    -3.33333000000E-01 -3.33333000000E-01 -1.98900000000E-01

   7   4   1    1 H     4.55100000000E-01  4.55100000000E-01  4.81800000000E-01
   8   4   2    1 H    -4.55100000000E-01 -4.55100000000E-01 -1.82000000000E-02

   9   5   1    1 H    -8.98000000000E-02 -4.55100000000E-01 -4.81800000000E-01
  10   5   2    1 H     8.98000000000E-02  4.55100000000E-01  1.82000000000E-02
  11   5   3    1 H    -4.55100000000E-01 -8.98000000000E-02 -4.81800000000E-01
  12   5   4    1 H     4.55100000000E-01  8.98000000000E-02  1.82000000000E-02

 NUMBER OF SYMMETRY OPERATORS         :    4
 *******************************************************************************
 * GEOMETRY EDITING - INPUT COORDINATES ARE GIVEN IN ANGSTROM          
 *******************************************************************************

 GEOMETRY NOW FULLY CONSISTENT WITH THE GROUP
 INFORMATION **** FULLOPTG **** FULL OPTIMIZATION (ATOMS AND CELL PARAMETERS
 *******************************************************************************
 COMBINED CELL/ATOM OPTIMIZATION CONTROL

 MAXIMUM GRADIENT COMPONENT   0.00045 MAXIMUM DISPLACEMENT COMPONENT     0.00180
 R.M.S. OF GRADIENT COMPONENT 0.00030 R.M.S. OF DISPLACEMENT COMPONENTS  0.00120
 THRESHOLD ON ENERGY CHANGE 0.100E-06 EXTRAPOLATING POLYNOMIAL ORDER           2
 MAXIMUM ALLOWED NUMBER OF STEPS  100 SORTING OF ENERGY POINTS:               NO
 ANALYTICAL  GRADIENT                 HESSIAN UPDATING                      BFGS
 STEP SIZE NUMERICAL GRADIENT 0.00100
 INITIAL HESSIAN MATRIX: SCHLEGEL MODEL 2
 *******************************************************************************


 GCALCO - MAX INDICES DIRECT LATTICE VECTOR    18    18     9
 NO.OF VECTORS CREATED 6999 STARS 1005 RMAX   113.64554 BOHR

 GEOMETRY FOR WAVE FUNCTION - DIMENSIONALITY OF THE SYSTEM    3
 (NON PERIODIC DIRECTION: LATTICE PARAMETER FORMALLY SET TO 500)
 *******************************************************************************
 LATTICE PARAMETERS (ANGSTROMS AND DEGREES) - BOHR = 0.5291772083 ANGSTROM
 PRIMITIVE CELL - CENTRING CODE 4/0 VOLUME=   130.519225 - DENSITY  0.917 g/cm^3
         A              B              C           ALPHA      BETA       GAMMA 
     4.52300009     4.52300009     7.36700000    90.000000  90.000000  59.999999
 *******************************************************************************
 ATOMS IN THE ASYMMETRIC UNIT    5 - ATOMS IN THE UNIT CELL:   12
     ATOM              X/A                 Y/B                 Z/C    
 *******************************************************************************
   1 T   8 O    -3.333330000000E-01 -3.333330000000E-01 -4.371000000000E-01
   2 F   8 O     3.333330000000E-01  3.333330000000E-01  6.290000000000E-02
   3 T   8 O     3.333330000000E-01  3.333330000000E-01  4.371000000000E-01
   4 F   8 O    -3.333330000000E-01 -3.333330000000E-01 -6.290000000000E-02
   5 T   1 H     3.333330000000E-01  3.333330000000E-01  3.011000000000E-01
   6 F   1 H    -3.333330000000E-01 -3.333330000000E-01 -1.989000000000E-01
   7 T   1 H     4.551000000000E-01  4.551000000000E-01  4.818000000000E-01
   8 F   1 H    -4.551000000000E-01 -4.551000000000E-01 -1.820000000000E-02
   9 T   1 H    -8.980000000000E-02 -4.551000000000E-01 -4.818000000000E-01
  10 F   1 H     8.980000000000E-02  4.551000000000E-01  1.820000000000E-02
  11 F   1 H    -4.551000000000E-01 -8.980000000000E-02 -4.818000000000E-01
  12 F   1 H     4.551000000000E-01  8.980000000000E-02  1.820000000000E-02

 TRANSFORMATION MATRIX PRIMITIVE-CRYSTALLOGRAPHIC CELL
  1.0000  1.0000  0.0000 -1.0000  1.0000  0.0000  0.0000  0.0000  1.0000

 *******************************************************************************
 CRYSTALLOGRAPHIC CELL (VOLUME=        261.03845098)
         A              B              C           ALPHA      BETA       GAMMA 
     4.52300000     7.83406600     7.36700000    90.000000  90.000000  90.000000

 COORDINATES IN THE CRYSTALLOGRAPHIC CELL
     ATOM              X/A                 Y/B                 Z/C    
 *******************************************************************************
   1 T   8 O     0.000000000000E+00 -3.333330000000E-01 -4.371000000000E-01
   2 F   8 O    -5.000000000000E-01 -1.666670000000E-01  6.290000000000E-02
   3 T   8 O     5.000000000000E-01 -1.666670000000E-01  4.371000000000E-01
   4 F   8 O     0.000000000000E+00 -3.333330000000E-01 -6.290000000000E-02
   5 T   1 H     5.000000000000E-01 -1.666670000000E-01  3.011000000000E-01
   6 F   1 H     0.000000000000E+00 -3.333330000000E-01 -1.989000000000E-01
   7 T   1 H     5.000000000000E-01 -4.490000000000E-02  4.818000000000E-01
   8 F   1 H    -5.000000000000E-01  4.490000000000E-02 -1.820000000000E-02
   9 T   1 H     1.826500000000E-01 -2.724500000000E-01 -4.818000000000E-01
  10 F   1 H     3.173500000000E-01 -2.275500000000E-01  1.820000000000E-02
  11 F   1 H    -1.826500000000E-01 -2.724500000000E-01 -4.818000000000E-01
  12 F   1 H    -3.173500000000E-01 -2.275500000000E-01  1.820000000000E-02

 T = ATOM BELONGING TO THE ASYMMETRIC UNIT

 ****   4 SYMMOPS - TRANSLATORS IN FRACTIONARY UNITS
  V INV                   ROTATION MATRICES                       TRANSLATOR
  1  1  1.00  0.00  0.00  0.00  1.00  0.00  0.00  0.00  1.00    0.00  0.00  0.00
  2  2 -1.00  0.00  0.00  0.00 -1.00  0.00  0.00  0.00  1.00    0.00  0.00  0.50
  3  3  0.00  1.00  0.00  1.00  0.00  0.00  0.00  0.00  1.00    0.00  0.00  0.00
  4  4  0.00 -1.00  0.00 -1.00  0.00  0.00  0.00  0.00  1.00    0.00  0.00  0.50

 DIRECT LATTICE VECTORS CARTESIAN COMPONENTS (ANGSTROM)
          X                    Y                    Z
   0.226150000000E+01   0.391703300000E+01   0.000000000000E+00
  -0.226150000000E+01   0.391703300000E+01   0.000000000000E+00
   0.000000000000E+00   0.000000000000E+00   0.736700000000E+01


 CARTESIAN COORDINATES - PRIMITIVE CELL
 *******************************************************************************
 *      ATOM          X(ANGSTROM)         Y(ANGSTROM)         Z(ANGSTROM)
 *******************************************************************************
   1     8 O     0.000000000000E+00 -2.611352721978E+00 -3.220115700000E+00
   2     8 O    -2.261500000000E+00 -1.305680278022E+00  4.633843000000E-01
   3     8 O    -2.261500000000E+00 -1.305680278022E+00  3.220115700000E+00
   4     8 O     0.000000000000E+00 -2.611352721978E+00 -4.633843000000E-01
   5     1 H    -2.261500000000E+00 -1.305680278022E+00  2.218203700000E+00
   6     1 H     0.000000000000E+00 -2.611352721978E+00 -1.465296300000E+00
   7     1 H    -2.261500000000E+00 -3.517495634000E-01  3.549420600000E+00
   8     1 H    -2.261500000000E+00  3.517495634000E-01 -1.340794000000E-01
   9     1 H     8.261259500000E-01 -2.134391281700E+00 -3.549420600000E+00
  10     1 H     1.435374050000E+00 -1.782641718300E+00  1.340794000000E-01
  11     1 H    -8.261259500000E-01 -2.134391281700E+00 -3.549420600000E+00
  12     1 H    -1.435374050000E+00 -1.782641718300E+00  1.340794000000E-01

 *******************************************************************************
 LOCAL ATOMIC FUNCTIONS BASIS SET
 *******************************************************************************
   ATOM  X(AU)  Y(AU)  Z(AU)    NO. TYPE  EXPONENT  S COEF   P COEF   D/F/G COEF
 *******************************************************************************
   1 O   0.000 -4.935 -6.085
                                  1 S  
                                         1.307E+02 1.543E-01 0.000E+00 0.000E+00
                                         2.381E+01 5.353E-01 0.000E+00 0.000E+00
                                         6.444E+00 4.446E-01 0.000E+00 0.000E+00
                             2-   5 SP 
                                         5.033E+00-9.997E-02 1.559E-01 0.000E+00
                                         1.170E+00 3.995E-01 6.077E-01 0.000E+00
                                         3.804E-01 7.001E-01 3.920E-01 0.000E+00
   2 O  -4.274 -2.467  0.876
   3 O  -4.274 -2.467  6.085
   4 O   0.000 -4.935 -0.876
   5 H  -4.274 -2.467  4.192
                                 21 S  
                                         3.425E+00 1.543E-01 0.000E+00 0.000E+00
                                         6.239E-01 5.353E-01 0.000E+00 0.000E+00
                                         1.689E-01 4.446E-01 0.000E+00 0.000E+00
   6 H   0.000 -4.935 -2.769
   7 H  -4.274 -0.665  6.707
   8 H  -4.274  0.665 -0.253
   9 H   1.561 -4.033 -6.707
  10 H   2.712 -3.369  0.253
  11 H  -1.561 -4.033 -6.707
  12 H  -2.712 -3.369  0.253
 *******************************************************************************
 N. OF ATOMS PER CELL       12  COULOMB OVERLAP TOL         (T1) 10** -6
 NUMBER OF SHELLS           16  COULOMB PENETRATION TOL     (T2) 10** -6
 NUMBER OF AO               28  EXCHANGE OVERLAP TOL        (T3) 10** -6
 N. OF ELECTRONS PER CELL   40  EXCHANGE PSEUDO OVP (F(G))  (T4) 10** -6
 CORE ELECTRONS PER CELL     8  EXCHANGE PSEUDO OVP (P(G))  (T5) 10**-12
 N. OF SYMMETRY OPERATORS    4  POLE ORDER IN MONO ZONE                4
 *******************************************************************************
 TYPE OF CALCULATION :  RESTRICTED CLOSED SHELL
 HARTREE-FOCK HAMILTONIAN

 CAPPA:IS1  2;IS2  2;IS3  2; K PTS MONK NET    6; SYMMOPS: K SPACE  8;G SPACE  4

 *******************************************************************************
 MAX NUMBER OF SCF CYCLES      50  CONVERGENCE ON DELTAP        10**-16
 WEIGHT OF F(I) IN F(I+1)      30% CONVERGENCE ON ENERGY        10**- 7
 SHRINK. FACT.(MONKH.)    2  2  2  NUMBER OF K POINTS IN THE IBZ      6
 SHRINKING FACTOR(GILAT NET)    2  NUMBER OF K POINTS(GILAT NET)      6
 *******************************************************************************
 *** K POINTS COORDINATES (OBLIQUE COORDINATES IN UNITS OF IS =  2)
   1-R(  0  0  0)   2-R(  1  0  0)   3-R(  1  1  0)   4-R(  0  0  1)
   5-R(  1  0  1)   6-R(  1  1  1)

 DIRECT LATTICE VECTORS COMPON. (A.U.)     RECIP. LATTICE VECTORS COMPON. (A.U.) 
        X            Y            Z              X            Y            Z
    4.2736157    7.4021196    0.0000000      0.7351135    0.4244180    0.0000000
   -4.2736157    7.4021196    0.0000000     -0.7351135    0.4244180    0.0000000
    0.0000000    0.0000000   13.9216124      0.0000000    0.0000000    0.4513260

 DISK SPACE FOR EIGENVECTORS (FTN 10)       4704 REALS

 SYMMETRY ADAPTION OF THE BLOCH FUNCTIONS ENABLED

 DIMENSIONS  P(G)=    9044 F(G)=    1506 P(G),F(G) (IRR)    1511
 MAX G-VECTOR INDEX FOR 1- AND 2-ELECTRON INTEGRALS 155

 INFORMATION **** GENBUF **** COULOMB BIPO BUFFER LENGTH (WORDS) =       37650
 TTTTTTTTTTTTTTTTTTTTTTTTTTTTTT INPUT       TELAPSE        0.14 TCPU        0.00

 NEIGHBORS OF THE NON-EQUIVALENT ATOMS

 N = NUMBER OF NEIGHBORS AT DISTANCE R
    ATOM  N     R/ANG      R/AU   NEIGHBORS (ATOM LABELS AND CELL INDICES)
   1 O    2     1.0092     1.9070   9 H    0 0 0  11 H    0 0 0
   1 O    1     1.7548     3.3161   6 H    0 0 0
   1 O    1     1.7618     3.3294   7 H    0-1-1
   1 O    1     2.7567     5.2095   4 O    0 0 0
   1 O    2     2.7709     5.2363   3 O    0 0-1   3 O    1-1-1
   1 O    1     2.7709     5.2363   3 O    0-1-1

   3 O    1     1.0019     1.8933   5 H    0 0 0
   3 O    1     1.0092     1.9071   7 H    0 0 0
   3 O    2     1.7618     3.3294   9 H   -1 1 1  11 H    0 0 1
   3 O    1     2.7567     5.2095   2 O    0 0 0
   3 O    2     2.7709     5.2363   1 O    0 0 1   1 O   -1 1 1
   3 O    1     2.7709     5.2363   1 O    0 1 1

   5 H    1     1.0019     1.8933   3 O    0 0 0
   5 H    1     1.6377     3.0948   7 H    0 0 0
   5 H    1     1.7548     3.3161   2 O    0 0 0
   5 H    2     2.2921     4.3314  10 H   -1 1 0  12 H    0 0 0
   5 H    2     2.3033     4.3526   9 H   -1 1 1  11 H    0 0 1
   5 H    1     2.8776     5.4378   8 H    0 0 0

   7 H    1     1.0092     1.9071   3 O    0 0 0
   7 H    1     1.6377     3.0948   5 H    0 0 0
   7 H    1     1.7618     3.3294   1 O    0 1 1
   7 H    2     2.3043     4.3546   9 H   -1 1 1  11 H    0 0 1
   7 H    2     2.3043     4.3546   9 H    0 1 1  11 H    0 1 1
   7 H    1     2.8776     5.4378   6 H    0 1 1

   9 H    1     1.0092     1.9070   1 O    0 0 0
   9 H    1     1.6523     3.1223  11 H    0 0 0
   9 H    1     1.7618     3.3294   3 O    1-1-1
   9 H    1     2.2921     4.3314   6 H    0 0 0
   9 H    1     2.3033     4.3526   5 H    1-1-1
   9 H    1     2.3043     4.3546   7 H    1-1-1


 SYMMETRY ALLOWED ELASTIC DISTORTION 1
  0.5773503  0.0000000  0.0000000
  0.0000000  0.5773503  0.0000000
  0.0000000  0.0000000  0.5773503

 SYMMETRY ALLOWED ELASTIC DISTORTION 2
  0.8164966  0.0000000  0.0000000
  0.0000000 -0.4082483  0.0000000
  0.0000000  0.0000000 -0.4082483

 SYMMETRY ALLOWED ELASTIC DISTORTION 3
  0.0000000  0.0000000  0.0000000
  0.0000000  0.7071068  0.0000000
  0.0000000  0.0000000 -0.7071068

 SYMMETRY ALLOWED INTERNAL DEGREE(S) OF FREEDOM:  10
 TTTTTTTTTTTTTTTTTTTTTTTTTTTTTT SYMM        TELAPSE        0.15 TCPU        0.00
 TTTTTTTTTTTTTTTTTTTTTTTTTTTTTT INT_SCREEN  TELAPSE        0.16 TCPU        0.00
 *******************************************************************************
 COORDINATE AND CELL OPTIMIZATION - POINT    1
 INFORMATION **** GENBUF **** COULOMB BIPO BUFFER LENGTH (WORDS) =       37650
 INFORMATION **** EXCBUF **** EXCH. BIPO BUFFER: WORDS USED =       30321
 TTTTTTTTTTTTTTTTTTTTTTTTTTTTTT MONIRR      TELAPSE        0.20 TCPU        0.02

  GAUSS70 FOR COULOMB   GAUSS70 FOR EXCHANGE
 **SHELL_ORTHODOX** SPACE FOR BIEL. INTEGRALS     1 BUFFERS
 TTTTTTTTTTTTTTTTTTTTTTTTTTTTTT SHLC        TELAPSE        2.40 TCPU        1.64
 TTTTTTTTTTTTTTTTTTTTTTTTTTTTTT MONMAD      TELAPSE        2.64 TCPU        1.88
 TTTTTTTTTTTTTTTTTTTTTTTTTTTTTT INT_CALC    TELAPSE        2.64 TCPU        1.88

 *******************************************************************************
 Ferroelectric ordered ice in Cmc21 setting, expt'l. geometry                    
 CRYSTAL - SCF - TYPE OF CALCULATION :  RESTRICTED CLOSED SHELL
 *******************************************************************************

 CAPPA:IS1  2;IS2  2;IS3  2; K PTS MONK NET    6; SYMMOPS: K SPACE  8;G SPACE  4

 TTTTTTTTTTTTTTTTTTTTTTTTTTTTTT SDIK        TELAPSE        2.65 TCPU        1.88

 AAAAAAAAAAAAAAAAAAAAAAAAAAAAAAAAAAAAAAAAAAAAAAAAAAAAAAAAAAAAAAAAAAAAAAAAAAAAAAA
         ATOMIC WAVEFUNCTION(S)


 NUCLEAR CHARGE  8.0  SYMMETRY SPECIES            S    P
 N. ELECTRONS    8.0  NUMBER OF PRIMITIVE GTOS    6    3
                      NUMBER OF CONTRACTED GTOS   2    1
                      NUMBER OF CLOSED SHELLS     2    0
                      OPEN SHELL OCCUPATION       0    4

  ZNUC SCFIT  TOTAL HF ENERGY   KINETIC ENERGY   VIRIAL THEOREM ACCURACY
   8.0   1   -7.380415026E+01  7.344496710E+01 -2.004890507E+00  0.0E+00

 NUCLEAR CHARGE  1.0  SYMMETRY SPECIES            S
 N. ELECTRONS    1.0  NUMBER OF PRIMITIVE GTOS    3
                      NUMBER OF CONTRACTED GTOS   1
                      NUMBER OF CLOSED SHELLS     0
                      OPEN SHELL OCCUPATION       1

  ZNUC SCFIT  TOTAL HF ENERGY   KINETIC ENERGY   VIRIAL THEOREM ACCURACY
   1.0   1   -4.665818504E-01  7.600318799E-01 -1.613897736E+00  0.0E+00

 AAAAAAAAAAAAAAAAAAAAAAAAAAAAAAAAAAAAAAAAAAAAAAAAAAAAAAAAAAAAAAAAAAAAAAAAAAAAAAA

 CHARGE NORMALIZATION FACTOR   1.00000000
 TOTAL ATOMIC CHARGES:
   8.0000000   8.0000000   8.0000000   8.0000000   1.0000000   1.0000000
   1.0000000   1.0000000   1.0000000   1.0000000   1.0000000   1.0000000
 TTTTTTTTTTTTTTTTTTTTTTTTTTTTTT QGAM        TELAPSE        2.65 TCPU        1.88
 TTTTTTTTTTTTTTTTTTTTTTTTTTTTTT BIEL        TELAPSE        2.67 TCPU        1.89
 TTTTTTTTTTTTTTTTTTTTTTTTTTTTTT TOTENY      TELAPSE        2.67 TCPU        1.90
 CYC   0 ETOT(AU) -2.984607043551E+02 DETOT -2.98E+02 tst  0.00E+00 PX  1.00E+00
 TTTTTTTTTTTTTTTTTTTTTTTTTTTTTT FDIK        TELAPSE        2.67 TCPU        1.90
 INSULATING STATE
 TOP OF VALENCE BANDS -    BAND     20; K    3; EIG -2.4889686E-01 AU
 TOP OF VALENCE BANDS -    BAND     20; K    1; EIG -2.5241093E-01 AU
 BOTTOM OF VIRTUAL BANDS - BAND     21; K    1; EIG  3.5033370E-01 AU
 TTTTTTTTTTTTTTTTTTTTTTTTTTTTTT PDIG        TELAPSE        2.67 TCPU        1.90
 CHARGE NORMALIZATION FACTOR   1.00000000
 TOTAL ATOMIC CHARGES:
   8.6675403   8.6675403   8.6689401   8.6689401   0.6660051   0.6660051
   0.6659526   0.6659526   0.6657809   0.6657809   0.6657809   0.6657809
 TTTTTTTTTTTTTTTTTTTTTTTTTTTTTT QGAM        TELAPSE        2.67 TCPU        1.90
 TTTTTTTTTTTTTTTTTTTTTTTTTTTTTT BIEL        TELAPSE        2.70 TCPU        1.93
 TTTTTTTTTTTTTTTTTTTTTTTTTTTTTT TOTENY      TELAPSE        2.70 TCPU        1.93
 CYC   1 ETOT(AU) -2.998853448776E+02 DETOT -1.42E+00 tst  0.00E+00 PX  1.00E+00
 TTTTTTTTTTTTTTTTTTTTTTTTTTTTTT FDIK        TELAPSE        2.71 TCPU        1.93
 INSULATING STATE
 TOP OF VALENCE BANDS -    BAND     20; K    2; EIG -2.8401637E-01 AU
 TOP OF VALENCE BANDS -    BAND     20; K    1; EIG -2.8754067E-01 AU
 BOTTOM OF VIRTUAL BANDS - BAND     21; K    1; EIG  4.5139838E-01 AU
 TTTTTTTTTTTTTTTTTTTTTTTTTTTTTT PDIG        TELAPSE        2.71 TCPU        1.94
 CHARGE NORMALIZATION FACTOR   1.00000000
 TOTAL ATOMIC CHARGES:
   8.5077148   8.5077148   8.5099785   8.5099785   0.7448029   0.7448029
   0.7460889   0.7460889   0.7457074   0.7457074   0.7457074   0.7457074
 TTTTTTTTTTTTTTTTTTTTTTTTTTTTTT QGAM        TELAPSE        2.71 TCPU        1.94
 TTTTTTTTTTTTTTTTTTTTTTTTTTTTTT BIEL        TELAPSE        2.74 TCPU        1.96
 TTTTTTTTTTTTTTTTTTTTTTTTTTTTTT TOTENY      TELAPSE        2.74 TCPU        1.96
 CYC   2 ETOT(AU) -2.999467626424E+02 DETOT -6.14E-02 tst  2.84E-03 PX  1.23E-01
 TTTTTTTTTTTTTTTTTTTTTTTTTTTTTT FDIK        TELAPSE        2.74 TCPU        1.97
 INSULATING STATE
 TOP OF VALENCE BANDS -    BAND     20; K    2; EIG -3.1958452E-01 AU
 TOP OF VALENCE BANDS -    BAND     20; K    1; EIG -3.2319206E-01 AU
 BOTTOM OF VIRTUAL BANDS - BAND     21; K    1; EIG  4.7216564E-01 AU
 TTTTTTTTTTTTTTTTTTTTTTTTTTTTTT PDIG        TELAPSE        2.74 TCPU        1.97
 CHARGE NORMALIZATION FACTOR   1.00000000
 TOTAL ATOMIC CHARGES:
   8.4633404   8.4633404   8.4653761   8.4653761   0.7668206   0.7668206
   0.7685818   0.7685818   0.7679406   0.7679406   0.7679406   0.7679406
 TTTTTTTTTTTTTTTTTTTTTTTTTTTTTT QGAM        TELAPSE        2.74 TCPU        1.97
 TTTTTTTTTTTTTTTTTTTTTTTTTTTTTT BIEL        TELAPSE        2.77 TCPU        2.00
 TTTTTTTTTTTTTTTTTTTTTTTTTTTTTT TOTENY      TELAPSE        2.77 TCPU        2.00
 CYC   3 ETOT(AU) -2.999552414296E+02 DETOT -8.48E-03 tst  2.77E-04 PX  4.34E-02
 TTTTTTTTTTTTTTTTTTTTTTTTTTTTTT FDIK        TELAPSE        2.77 TCPU        2.00
 INSULATING STATE
 TOP OF VALENCE BANDS -    BAND     20; K    2; EIG -3.3744513E-01 AU
 TOP OF VALENCE BANDS -    BAND     20; K    1; EIG -3.4115809E-01 AU
 BOTTOM OF VIRTUAL BANDS - BAND     21; K    1; EIG  4.7600660E-01 AU
 TTTTTTTTTTTTTTTTTTTTTTTTTTTTTT PDIG        TELAPSE        2.77 TCPU        2.00
 CHARGE NORMALIZATION FACTOR   1.00000000
 TOTAL ATOMIC CHARGES:
   8.4486840   8.4486840   8.4507974   8.4507974   0.7739669   0.7739669
   0.7759839   0.7759839   0.7752839   0.7752839   0.7752839   0.7752839
 TTTTTTTTTTTTTTTTTTTTTTTTTTTTTT QGAM        TELAPSE        2.77 TCPU        2.00
 TTTTTTTTTTTTTTTTTTTTTTTTTTTTTT BIEL        TELAPSE        2.80 TCPU        2.03
 TTTTTTTTTTTTTTTTTTTTTTTTTTTTTT TOTENY      TELAPSE        2.80 TCPU        2.03
 CYC   4 ETOT(AU) -2.999571471085E+02 DETOT -1.91E-03 tst  5.66E-05 PX  1.84E-02
 TTTTTTTTTTTTTTTTTTTTTTTTTTTTTT FDIK        TELAPSE        2.81 TCPU        2.03
 INSULATING STATE
 TOP OF VALENCE BANDS -    BAND     20; K    2; EIG -3.4525835E-01 AU
 TOP OF VALENCE BANDS -    BAND     20; K    1; EIG -3.4908814E-01 AU
 BOTTOM OF VIRTUAL BANDS - BAND     21; K    1; EIG  4.7651297E-01 AU
 TTTTTTTTTTTTTTTTTTTTTTTTTTTTTT PDIG        TELAPSE        2.81 TCPU        2.04
 CHARGE NORMALIZATION FACTOR   1.00000000
 TOTAL ATOMIC CHARGES:
   8.4431405   8.4431405   8.4452513   8.4452513   0.7766555   0.7766555
   0.7788090   0.7788090   0.7780718   0.7780718   0.7780718   0.7780718
 TTTTTTTTTTTTTTTTTTTTTTTTTTTTTT QGAM        TELAPSE        2.81 TCPU        2.04
 TTTTTTTTTTTTTTTTTTTTTTTTTTTTTT BIEL        TELAPSE        2.84 TCPU        2.06
 TTTTTTTTTTTTTTTTTTTTTTTTTTTTTT TOTENY      TELAPSE        2.84 TCPU        2.07
 CYC   5 ETOT(AU) -2.999576673008E+02 DETOT -5.20E-04 tst  1.73E-05 PX  8.56E-03
 TTTTTTTTTTTTTTTTTTTTTTTTTTTTTT FDIK        TELAPSE        2.84 TCPU        2.07
 INSULATING STATE
 TOP OF VALENCE BANDS -    BAND     20; K    2; EIG -3.4859705E-01 AU
 TOP OF VALENCE BANDS -    BAND     20; K    1; EIG -3.5248117E-01 AU
 BOTTOM OF VIRTUAL BANDS - BAND     21; K    1; EIG  4.7647878E-01 AU
 TTTTTTTTTTTTTTTTTTTTTTTTTTTTTT PDIG        TELAPSE        2.84 TCPU        2.07
 CHARGE NORMALIZATION FACTOR   1.00000000
 TOTAL ATOMIC CHARGES:
   8.4407610   8.4407610   8.4428725   8.4428725   0.7778020   0.7778020
   0.7800288   0.7800288   0.7792679   0.7792679   0.7792679   0.7792679
 TTTTTTTTTTTTTTTTTTTTTTTTTTTTTT QGAM        TELAPSE        2.84 TCPU        2.07
 TTTTTTTTTTTTTTTTTTTTTTTTTTTTTT BIEL        TELAPSE        2.87 TCPU        2.10
 TTTTTTTTTTTTTTTTTTTTTTTTTTTTTT TOTENY      TELAPSE        2.87 TCPU        2.10
 CYC   6 ETOT(AU) -2.999578184502E+02 DETOT -1.51E-04 tst  5.15E-06 PX  4.23E-03
 TTTTTTTTTTTTTTTTTTTTTTTTTTTTTT FDIK        TELAPSE        2.87 TCPU        2.10
 INSULATING STATE
 TOP OF VALENCE BANDS -    BAND     20; K    2; EIG -3.5003967E-01 AU
 TOP OF VALENCE BANDS -    BAND     20; K    1; EIG -3.5395080E-01 AU
 BOTTOM OF VIRTUAL BANDS - BAND     21; K    1; EIG  4.7641113E-01 AU
 TTTTTTTTTTTTTTTTTTTTTTTTTTTTTT PDIG        TELAPSE        2.87 TCPU        2.10
 CHARGE NORMALIZATION FACTOR   1.00000000
 TOTAL ATOMIC CHARGES:
   8.4396290   8.4396290   8.4417456   8.4417456   0.7783415   0.7783415
   0.7806099   0.7806099   0.7798370   0.7798370   0.7798370   0.7798370
 TTTTTTTTTTTTTTTTTTTTTTTTTTTTTT QGAM        TELAPSE        2.88 TCPU        2.10
 TTTTTTTTTTTTTTTTTTTTTTTTTTTTTT BIEL        TELAPSE        2.90 TCPU        2.13
 TTTTTTTTTTTTTTTTTTTTTTTTTTTTTT TOTENY      TELAPSE        2.90 TCPU        2.13
 CYC   7 ETOT(AU) -2.999578634315E+02 DETOT -4.50E-05 tst  1.52E-06 PX  2.16E-03
 TTTTTTTTTTTTTTTTTTTTTTTTTTTTTT FDIK        TELAPSE        2.91 TCPU        2.14
 INSULATING STATE
 TOP OF VALENCE BANDS -    BAND     20; K    2; EIG -3.5068462E-01 AU
 TOP OF VALENCE BANDS -    BAND     20; K    1; EIG -3.5461019E-01 AU
 BOTTOM OF VIRTUAL BANDS - BAND     21; K    1; EIG  4.7637168E-01 AU
 TTTTTTTTTTTTTTTTTTTTTTTTTTTTTT PDIG        TELAPSE        2.91 TCPU        2.14
 CHARGE NORMALIZATION FACTOR   1.00000000
 TOTAL ATOMIC CHARGES:
   8.4390534   8.4390534   8.4411735   8.4411735   0.7786149   0.7786149
   0.7809057   0.7809057   0.7801262   0.7801262   0.7801262   0.7801262
 TTTTTTTTTTTTTTTTTTTTTTTTTTTTTT QGAM        TELAPSE        2.91 TCPU        2.14
 TTTTTTTTTTTTTTTTTTTTTTTTTTTTTT BIEL        TELAPSE        2.94 TCPU        2.16
 TTTTTTTTTTTTTTTTTTTTTTTTTTTTTT TOTENY      TELAPSE        2.94 TCPU        2.17
 CYC   8 ETOT(AU) -2.999578769731E+02 DETOT -1.35E-05 tst  4.46E-07 PX  1.12E-03
 TTTTTTTTTTTTTTTTTTTTTTTTTTTTTT FDIK        TELAPSE        2.94 TCPU        2.17
 INSULATING STATE
 TOP OF VALENCE BANDS -    BAND     20; K    2; EIG -3.5098577E-01 AU
 TOP OF VALENCE BANDS -    BAND     20; K    1; EIG -3.5491934E-01 AU
 BOTTOM OF VIRTUAL BANDS - BAND     21; K    1; EIG  4.7635263E-01 AU
 TTTTTTTTTTTTTTTTTTTTTTTTTTTTTT PDIG        TELAPSE        2.94 TCPU        2.17
 CHARGE NORMALIZATION FACTOR   1.00000000
 TOTAL ATOMIC CHARGES:
   8.4387497   8.4387497   8.4408706   8.4408706   0.7787589   0.7787589
   0.7810627   0.7810627   0.7802791   0.7802791   0.7802791   0.7802791
 TTTTTTTTTTTTTTTTTTTTTTTTTTTTTT QGAM        TELAPSE        2.94 TCPU        2.17
 TTTTTTTTTTTTTTTTTTTTTTTTTTTTTT BIEL        TELAPSE        2.97 TCPU        2.20
 TTTTTTTTTTTTTTTTTTTTTTTTTTTTTT TOTENY      TELAPSE        2.97 TCPU        2.20
 CYC   9 ETOT(AU) -2.999578810943E+02 DETOT -4.12E-06 tst  1.42E-07 PX  5.86E-04
 TTTTTTTTTTTTTTTTTTTTTTTTTTTTTT FDIK        TELAPSE        2.97 TCPU        2.20
 INSULATING STATE
 TOP OF VALENCE BANDS -    BAND     20; K    2; EIG -3.5113256E-01 AU
 TOP OF VALENCE BANDS -    BAND     20; K    1; EIG -3.5507052E-01 AU
 BOTTOM OF VIRTUAL BANDS - BAND     21; K    1; EIG  4.7634393E-01 AU
 TTTTTTTTTTTTTTTTTTTTTTTTTTTTTT PDIG        TELAPSE        2.97 TCPU        2.20
 CHARGE NORMALIZATION FACTOR   1.00000000
 TOTAL ATOMIC CHARGES:
   8.4385851   8.4385851   8.4407073   8.4407073   0.7788364   0.7788364
   0.7811477   0.7811477   0.7803617   0.7803617   0.7803617   0.7803617
 TTTTTTTTTTTTTTTTTTTTTTTTTTTTTT QGAM        TELAPSE        2.98 TCPU        2.20
 TTTTTTTTTTTTTTTTTTTTTTTTTTTTTT BIEL        TELAPSE        3.00 TCPU        2.23
 TTTTTTTTTTTTTTTTTTTTTTTTTTTTTT TOTENY      TELAPSE        3.01 TCPU        2.24
 CYC  10 ETOT(AU) -2.999578823673E+02 DETOT -1.27E-06 tst  4.53E-08 PX  3.21E-04
 TTTTTTTTTTTTTTTTTTTTTTTTTTTTTT FDIK        TELAPSE        3.01 TCPU        2.24
 INSULATING STATE
 TOP OF VALENCE BANDS -    BAND     20; K    2; EIG -3.5120662E-01 AU
 TOP OF VALENCE BANDS -    BAND     20; K    1; EIG -3.5514713E-01 AU
 BOTTOM OF VIRTUAL BANDS - BAND     21; K    1; EIG  4.7633988E-01 AU
 TTTTTTTTTTTTTTTTTTTTTTTTTTTTTT PDIG        TELAPSE        3.01 TCPU        2.24
 CHARGE NORMALIZATION FACTOR   1.00000000
 TOTAL ATOMIC CHARGES:
   8.4384952   8.4384952   8.4406176   8.4406176   0.7788788   0.7788788
   0.7811944   0.7811944   0.7804070   0.7804070   0.7804070   0.7804070
 TTTTTTTTTTTTTTTTTTTTTTTTTTTTTT QGAM        TELAPSE        3.01 TCPU        2.24
 TTTTTTTTTTTTTTTTTTTTTTTTTTTTTT BIEL        TELAPSE        3.04 TCPU        2.27
 TTTTTTTTTTTTTTTTTTTTTTTTTTTTTT TOTENY      TELAPSE        3.04 TCPU        2.27
 CYC  11 ETOT(AU) -2.999578827684E+02 DETOT -4.01E-07 tst  1.45E-08 PX  1.77E-04
 TTTTTTTTTTTTTTTTTTTTTTTTTTTTTT FDIK        TELAPSE        3.04 TCPU        2.27
 INSULATING STATE
 TOP OF VALENCE BANDS -    BAND     20; K    2; EIG -3.5124502E-01 AU
 TOP OF VALENCE BANDS -    BAND     20; K    1; EIG -3.5518695E-01 AU
 BOTTOM OF VIRTUAL BANDS - BAND     21; K    1; EIG  4.7633795E-01 AU
 TTTTTTTTTTTTTTTTTTTTTTTTTTTTTT PDIG        TELAPSE        3.04 TCPU        2.27
 CHARGE NORMALIZATION FACTOR   1.00000000
 TOTAL ATOMIC CHARGES:
   8.4384455   8.4384455   8.4405682   8.4405682   0.7789021   0.7789021
   0.7812203   0.7812203   0.7804319   0.7804319   0.7804319   0.7804319
 TTTTTTTTTTTTTTTTTTTTTTTTTTTTTT QGAM        TELAPSE        3.04 TCPU        2.27
 TTTTTTTTTTTTTTTTTTTTTTTTTTTTTT BIEL        TELAPSE        3.07 TCPU        2.30
 TTTTTTTTTTTTTTTTTTTTTTTTTTTTTT TOTENY      TELAPSE        3.07 TCPU        2.30
 CYC  12 ETOT(AU) -2.999578828986E+02 DETOT -1.30E-07 tst  4.62E-09 PX  9.76E-05
 TTTTTTTTTTTTTTTTTTTTTTTTTTTTTT FDIK        TELAPSE        3.07 TCPU        2.30
 INSULATING STATE
 TOP OF VALENCE BANDS -    BAND     20; K    2; EIG -3.5126527E-01 AU
 TOP OF VALENCE BANDS -    BAND     20; K    1; EIG -3.5520803E-01 AU
 BOTTOM OF VIRTUAL BANDS - BAND     21; K    1; EIG  4.7633697E-01 AU
 TTTTTTTTTTTTTTTTTTTTTTTTTTTTTT PDIG        TELAPSE        3.08 TCPU        2.30
 CHARGE NORMALIZATION FACTOR   1.00000000
 TOTAL ATOMIC CHARGES:
   8.4384180   8.4384180   8.4405409   8.4405409   0.7789150   0.7789150
   0.7812346   0.7812346   0.7804457   0.7804457   0.7804457   0.7804457
 TTTTTTTTTTTTTTTTTTTTTTTTTTTTTT QGAM        TELAPSE        3.08 TCPU        2.30
 TTTTTTTTTTTTTTTTTTTTTTTTTTTTTT BIEL        TELAPSE        3.10 TCPU        2.34
 TTTTTTTTTTTTTTTTTTTTTTTTTTTTTT TOTENY      TELAPSE        3.11 TCPU        2.34
 CYC  13 ETOT(AU) -2.999578829429E+02 DETOT -4.43E-08 tst  1.54E-09 PX  5.38E-05
 TTTTTTTTTTTTTTTTTTTTTTTTTTTTTT FDIK        TELAPSE        3.11 TCPU        2.34
 INSULATING STATE
 TOP OF VALENCE BANDS -    BAND     20; K    2; EIG -3.5127607E-01 AU
 TOP OF VALENCE BANDS -    BAND     20; K    1; EIG -3.5521932E-01 AU
 BOTTOM OF VIRTUAL BANDS - BAND     21; K    1; EIG  4.7633645E-01 AU
 TTTTTTTTTTTTTTTTTTTTTTTTTTTTTT PDIG        TELAPSE        3.11 TCPU        2.34
 CHARGE NORMALIZATION FACTOR   1.00000000
 TOTAL ATOMIC CHARGES:
   8.4384028   8.4384028   8.4405257   8.4405257   0.7789221   0.7789221
   0.7812426   0.7812426   0.7804534   0.7804534   0.7804534   0.7804534
 TTTTTTTTTTTTTTTTTTTTTTTTTTTTTT QGAM        TELAPSE        3.11 TCPU        2.34
 TTTTTTTTTTTTTTTTTTTTTTTTTTTTTT BIEL        TELAPSE        3.14 TCPU        2.37
 +++ ENERGIES IN A.U. +++
 ::: EXT EL-POLE : L =  0                         -3.5331075566745E+02
 ::: EXT EL-POLE : L =  1                          6.6883452310913E-04
 ::: EXT EL-POLE : L =  2                         -9.4588259703972E-04
 ::: EXT EL-POLE : L =  3                         -2.9044809351793E-03
 ::: EXT EL-POLE : L =  4                         -3.2268555768584E-04
 ::: EXT EL-SPHEROPOLE                             2.4480682356602E+00
 ::: BIELET ZONE E-E                               4.2258791376853E+02
 ::: TOTAL E-E                                     7.1721722122174E+01
 ::: TOTAL E-N + N-E                              -6.1994854673306E+02
 ::: TOTAL N-N                                    -5.0127151043685E+01
 ::: KINETIC ENERGY                                2.9839609269567E+02
 ::: TOTAL   ENERGY                               -2.9995788295890E+02
 ::: VIRIAL COEFFICIENT                            9.9738985562597E-01
 TTTTTTTTTTTTTTTTTTTTTTTTTTTTTT TOTENY      TELAPSE        3.14 TCPU        2.37
 CYC  14 ETOT(AU) -2.999578829589E+02 DETOT -1.60E-08 tst  5.13E-10 PX  5.38E-05

 == SCF ENDED - CONVERGENCE ON ENERGY      E(AU) -2.9995788295890E+02 CYCLES  14

 TOTAL ENERGY(HF)(AU)(  14) -2.9995788295890E+02 DE-1.6E-08 tst 5.1E-10 PX 5.4E-05

 *******************************************************************************
 *                             FORCE CALCULATION                               *
 *******************************************************************************

 INFORMATION **** EXCPOG **** EXCH. BIPO BUFFER LENGTH (WORDS) =      121284
 INFORMATION **** GENPOG **** BIPO BUFFER LENGTH (WORDS) =       63600
 TTTTTTTTTTTTTTTTTTTTTTTTTTTTTT SHELXG      TELAPSE       10.06 TCPU        9.27

 CARTESIAN FORCES (ANALYTICAL)
   ATOM                     X                   Y                   Z
   1   8             4.510281037540E-17 -4.951652796820E-03  3.297610547342E-03
   2   8             3.903127820948E-17  4.951652796815E-03  3.297610547342E-03
   3   8            -2.289834988289E-16 -2.235303663029E-03  1.033132612724E-02
   4   8             2.758210326803E-16  2.235303663030E-03  1.033132612724E-02
   5   1            -1.665334536938E-16  1.452991383273E-02  8.453626910954E-03
   6   1             8.673617379884E-18 -1.452991383273E-02  8.453626910952E-03
   7   1             1.235990476633E-17 -1.175235547442E-02 -1.805490818720E-02
   8   1             1.006139616067E-15  1.175235547442E-02 -1.805490818720E-02
   9   1            -2.263904057783E-02  2.370684011416E-03 -2.013827699147E-03
  10   1             2.263904057783E-02 -2.370684011412E-03 -2.013827699144E-03
  11   1             2.263904057783E-02  2.370684011416E-03 -2.013827699146E-03
  12   1            -2.263904057783E-02 -2.370684011415E-03 -2.013827699145E-03

 RESULTANT FORCE     1.040834085586E-16  2.567390744446E-16  9.636735853746E-14

ATOMIC PART

 SYMMETRY ALLOWED FORCES (ANALYTICAL) (DIRECTION, FORCE)

    1 -7.0026945E-03    2  5.1086363E-03    3 -3.1611968E-03    4  1.7378057E-02
    5  2.0548401E-02    6  1.9368705E-02    7 -1.6620341E-02    8 -1.8522644E-02
    9 -1.8532895E-02   10  4.1582653E-02

CELL PART

 SYMMETRY ALLOWED FORCES (ANALYTICAL) (DIRECTION, FORCE)

    1 -4.3562627E-02    2 -3.1955614E-03    3  4.9113207E-04
 TTTTTTTTTTTTTTTTTTTTTTTTTTTTTT TOTGRA_C    TELAPSE       15.42 TCPU       14.63
 INFORMATION **** optc001 **** GEOMETRY OUTPUT FILE
 CLASSICAL MODEL (SCHLEGEL) USED AS INITIAL HESSIAN MATRIX
 REFERENCE GEOMETRY DEFINED

 MAX GRADIENT      0.043563  THRESHOLD              0.000450 CONVERGED NO
 RMS GRADIENT      0.021094  THRESHOLD              0.000300 CONVERGED NO

 GRADIENT NORM     0.076056  GRADIENT THRESHOLD     0.500000

 PREDICTED ENERGY CHANGE    -0.684E-03

 INITIAL DISPLACEMENTS
 -0.004638  0.000454 -0.002507  0.000922  0.001055  0.000051 -0.002728  0.001083
 -0.003908 -0.002038 -0.012675 -0.012608  0.006723
 TTTTTTTTTTTTTTTTTTTTTTTTTTTTTT OPTI        TELAPSE       15.44 TCPU       14.65

 OPTOPTOPTOPTOPTOPTOPTOPTOPTOPTOPTOPTOPTOPTOPTOPTOPTOPTOPTOPTOPTOPTOPTOPTOPTOPT

 STARTING GEOMETRY OPTIMIZATION - INFORMATION ON SCF MOVED TO SCFOUT.LOG
 GEOMETRY OPTIMIZATION INFORMATION STORED IN OPTINFO.DAT

 OPTOPTOPTOPTOPTOPTOPTOPTOPTOPTOPTOPTOPTOPTOPTOPTOPTOPTOPTOPTOPTOPTOPTOPTOPTOPT
 *******************************************************************************
 COORDINATE AND CELL OPTIMIZATION - POINT    2
 *******************************************************************************
 LATTICE PARAMETERS (ANGSTROMS AND DEGREES) - BOHR = 0.5291772083 ANGSTROM
 PRIMITIVE CELL - CENTRING CODE 4/0 VOLUME=   130.214523 - DENSITY  0.919 g/cm^3
         A              B              C           ALPHA      BETA       GAMMA 
     4.52025480     4.52025480     7.36140507    90.000000  90.000000  59.963978
 *******************************************************************************
 ATOMS IN THE ASYMMETRIC UNIT    5 - ATOMS IN THE UNIT CELL:   12
     ATOM              X/A                 Y/B                 Z/C    
 *******************************************************************************
   1 T   8 O    -3.335545415933E-01 -3.335545415933E-01 -4.370789310083E-01
   2 F   8 O     3.335545415933E-01  3.335545415933E-01  6.292106899174E-02
   3 T   8 O     3.332132336375E-01  3.332132336375E-01  4.371376651089E-01
   4 F   8 O    -3.332132336375E-01 -3.332132336375E-01 -6.286233489115E-02
   5 T   1 H     3.333833735712E-01  3.333833735712E-01  3.010875485729E-01
   6 F   1 H    -3.333833735712E-01 -3.333833735712E-01 -1.989124514271E-01
   7 T   1 H     4.549696863341E-01  4.549696863341E-01  4.818294846201E-01
   8 F   1 H    -4.549696863341E-01 -4.549696863341E-01 -1.817051537985E-02
   9 T   1 H    -8.995978739634E-02 -4.552376505480E-01 -4.818378836468E-01
  10 F   1 H     8.995978739634E-02  4.552376505480E-01  1.816211635316E-02
  11 F   1 H    -4.552376505480E-01 -8.995978739634E-02 -4.818378836468E-01
  12 F   1 H     4.552376505480E-01  8.995978739634E-02  1.816211635316E-02

 TRANSFORMATION MATRIX PRIMITIVE-CRYSTALLOGRAPHIC CELL
  1.0000  1.0000  0.0000 -1.0000  1.0000  0.0000  0.0000  0.0000  1.0000

 *******************************************************************************
 CRYSTALLOGRAPHIC CELL (VOLUME=        260.42904534)
         A              B              C           ALPHA      BETA       GAMMA 
     4.51779341     7.83073154     7.36140507    90.000000  90.000000  90.000000

 COORDINATES IN THE CRYSTALLOGRAPHIC CELL
     ATOM              X/A                 Y/B                 Z/C    
 *******************************************************************************
   1 T   8 O     0.000000000000E+00 -3.335545415933E-01 -4.370789310083E-01
   2 F   8 O    -5.000000000000E-01 -1.664454584067E-01  6.292106899174E-02
   3 T   8 O     5.000000000000E-01 -1.667867663625E-01  4.371376651089E-01
   4 F   8 O     0.000000000000E+00 -3.332132336375E-01 -6.286233489115E-02
   5 T   1 H     5.000000000000E-01 -1.666166264288E-01  3.010875485729E-01
   6 F   1 H     0.000000000000E+00 -3.333833735712E-01 -1.989124514271E-01
   7 T   1 H     5.000000000000E-01 -4.503031366590E-02  4.818294846201E-01
   8 F   1 H    -5.000000000000E-01  4.503031366590E-02 -1.817051537985E-02
   9 T   1 H     1.826389315758E-01 -2.725987189722E-01 -4.818378836468E-01
  10 F   1 H     3.173610684242E-01 -2.274012810278E-01  1.816211635316E-02
  11 F   1 H    -1.826389315758E-01 -2.725987189722E-01 -4.818378836468E-01
  12 F   1 H    -3.173610684242E-01 -2.274012810278E-01  1.816211635316E-02

 T = ATOM BELONGING TO THE ASYMMETRIC UNIT

 TOTAL ENERGY(HF)(AU)(   3) -2.9995856768321E+02     DE (AU)   -6.847E-04

 SYMMETRY ALLOWED FORCES  (COORDINATE, FORCE)

    1 -7.2648953E-03    2  5.3267422E-03    3 -3.4981243E-03    4  1.7397430E-02
    5  2.0161909E-02    6  1.8682504E-02    7 -1.5887430E-02    8 -1.7943962E-02
    9 -1.7641328E-02   10  4.0417780E-02   11 -4.2840103E-02   12 -3.1259997E-03
   13  4.8795773E-04

 GRADIENT NORM     0.074270  GRADIENT THRESHOLD     0.500000

 PREDICTED ENERGY CHANGE    -0.277E-01
 SCSCSCSCSCSCSCSCSCSCSCSCSCSCSCSCSCSCSCSCSCSCSCSCSCSCSCSCSCSCSCSCSCSCSCSCSCSCSC
 DISPLACEMENT SCALED BY  0.3893
 NO CONVERGENCE TESTS PERFORMED
           GRADIENT INFORMATIONS AT   --    PREDICTED POINT WRT CURR.POINT
   I  PREV.GRAD   CURR.GRAD   PRED.POINT  OLD.DISP NEW.DISP
    1    0.0070      0.0073      0.0237     -0.2901     -0.1129
    2   -0.0051     -0.0053     -0.0190      0.0527      0.0205
    3    0.0032      0.0035      0.0247     -0.1466     -0.0571
    4   -0.0174     -0.0174     -0.0186      0.0908      0.0354
    5   -0.0205     -0.0202      0.0041      0.0814      0.0317
    6   -0.0194     -0.0187      0.0244     -0.0748     -0.0291
    7    0.0166      0.0159     -0.0302     -0.0660     -0.0257
    8    0.0185      0.0179     -0.0184      0.1183      0.0461
    9    0.0185      0.0176     -0.0384     -0.1168     -0.0455
   10   -0.0416     -0.0404      0.0328     -0.1983     -0.0772
   11    0.0436      0.0428     -0.0026     -1.2844     -0.5000
   12    0.0032      0.0031     -0.0012     -0.7949     -0.3095
   13   -0.0005     -0.0005     -0.0003      0.5141      0.2001
 TTTTTTTTTTTTTTTTTTTTTTTTTTTTTT OPTI        TELAPSE       29.71 TCPU       28.92
 *******************************************************************************
 COORDINATE AND CELL OPTIMIZATION - POINT    3
 *******************************************************************************
 LATTICE PARAMETERS (ANGSTROMS AND DEGREES) - BOHR = 0.5291772083 ANGSTROM
 PRIMITIVE CELL - CENTRING CODE 4/0 VOLUME=   118.567902 - DENSITY  1.009 g/cm^3
         A              B              C           ALPHA      BETA       GAMMA 
     4.40357657     4.40357657     7.13233441    90.000000  90.000000  59.012900
 *******************************************************************************
 ATOMS IN THE ASYMMETRIC UNIT    5 - ATOMS IN THE UNIT CELL:   12
     ATOM              X/A                 Y/B                 Z/C    
 *******************************************************************************
   1 T   8 O    -3.389483022206E-01 -3.389483022206E-01 -4.361273406783E-01
   2 F   8 O     3.389483022206E-01  3.389483022206E-01  6.387265932171E-02
   3 T   8 O     3.304873791206E-01  3.304873791206E-01  4.385539538474E-01
   4 F   8 O    -3.304873791206E-01 -3.304873791206E-01 -6.144604615260E-02
   5 T   1 H     3.348972818415E-01  3.348972818415E-01  2.992138935950E-01
   6 F   1 H    -3.348972818415E-01 -3.348972818415E-01 -2.007861064050E-01
   7 T   1 H     4.537417684564E-01  4.537417684564E-01  4.835749869491E-01
   8 F   1 H    -4.537417684564E-01 -4.537417684564E-01 -1.642501305089E-02
   9 T   1 H    -9.001151387563E-02 -4.604534230080E-01 -4.829577468566E-01
  10 F   1 H     9.001151387563E-02  4.604534230080E-01  1.704225314338E-02
  11 F   1 H    -4.604534230080E-01 -9.001151387563E-02 -4.829577468566E-01
  12 F   1 H     4.604534230080E-01  9.001151387563E-02  1.704225314338E-02

 TRANSFORMATION MATRIX PRIMITIVE-CRYSTALLOGRAPHIC CELL
  1.0000  1.0000  0.0000 -1.0000  1.0000  0.0000  0.0000  0.0000  1.0000

 *******************************************************************************
 CRYSTALLOGRAPHIC CELL (VOLUME=        237.13580382)
         A              B              C           ALPHA      BETA       GAMMA 
     4.33771261     7.66486762     7.13233441    90.000000  90.000000  90.000000

 COORDINATES IN THE CRYSTALLOGRAPHIC CELL
     ATOM              X/A                 Y/B                 Z/C    
 *******************************************************************************
   1 T   8 O     0.000000000000E+00 -3.389483022206E-01 -4.361273406783E-01
   2 F   8 O    -5.000000000000E-01 -1.610516977794E-01  6.387265932171E-02
   3 T   8 O     5.000000000000E-01 -1.695126208794E-01  4.385539538474E-01
   4 F   8 O     0.000000000000E+00 -3.304873791206E-01 -6.144604615260E-02
   5 T   1 H     5.000000000000E-01 -1.651027181585E-01  2.992138935950E-01
   6 F   1 H     0.000000000000E+00 -3.348972818415E-01 -2.007861064050E-01
   7 T   1 H     5.000000000000E-01 -4.625823154357E-02  4.835749869491E-01
   8 F   1 H    -5.000000000000E-01  4.625823154357E-02 -1.642501305089E-02
   9 T   1 H     1.852209545662E-01 -2.752324684418E-01 -4.829577468566E-01
  10 F   1 H     3.147790454338E-01 -2.247675315582E-01  1.704225314338E-02
  11 F   1 H    -1.852209545662E-01 -2.752324684418E-01 -4.829577468566E-01
  12 F   1 H    -3.147790454338E-01 -2.247675315582E-01  1.704225314338E-02

 T = ATOM BELONGING TO THE ASYMMETRIC UNIT

 TOTAL ENERGY(HF)(AU)(  10) -2.9997724699710E+02     DE (AU)   -1.868E-02

 SYMMETRY ALLOWED FORCES  (COORDINATE, FORCE)

    1 -1.1411790E-02    2  8.4461815E-03    3 -9.3083355E-03    4  1.5856042E-02
    5  1.0008199E-02    6  1.5997239E-03    7  3.2988249E-04    8 -3.7332880E-03
    9  1.4986167E-03   10  1.3022212E-02   11 -2.5771319E-02   12 -1.5084772E-03
   13  2.0838943E-04

 GRADIENT NORM     0.038661  GRADIENT THRESHOLD     0.500000

 PREDICTED ENERGY CHANGE    -0.237E-01
 SCSCSCSCSCSCSCSCSCSCSCSCSCSCSCSCSCSCSCSCSCSCSCSCSCSCSCSCSCSCSCSCSCSCSCSCSCSCSC
 DISPLACEMENT SCALED BY  0.2960
 NO CONVERGENCE TESTS PERFORMED
           GRADIENT INFORMATIONS AT   --    PREDICTED POINT WRT CURR.POINT
   I  PREV.GRAD   CURR.GRAD   PRED.POINT  OLD.DISP NEW.DISP
    1    0.0073      0.0114      0.0198     -0.2312     -0.0684
    2   -0.0053     -0.0084     -0.0147      0.0732      0.0217
    3    0.0035      0.0093      0.0210     -0.1013     -0.0300
    4   -0.0174     -0.0159     -0.0128      0.1066      0.0315
    5   -0.0202     -0.0100      0.0104      0.0820      0.0243
    6   -0.0187     -0.0016      0.0328     -0.1640     -0.0485
    7    0.0159     -0.0003     -0.0330      0.0794      0.0235
    8    0.0179      0.0037     -0.0249      0.1617      0.0479
    9    0.0176     -0.0015     -0.0401      0.0622      0.0184
   10   -0.0404     -0.0130      0.0422     -0.2459     -0.0728
   11    0.0428      0.0258     -0.0086     -1.6894     -0.5000
   12    0.0031      0.0015     -0.0017     -0.6855     -0.2029
   13   -0.0005     -0.0002      0.0004      0.4079      0.1207
 TTTTTTTTTTTTTTTTTTTTTTTTTTTTTT OPTI        TELAPSE       44.26 TCPU       43.47
 *******************************************************************************
 COORDINATE AND CELL OPTIMIZATION - POINT    4
 *******************************************************************************
 LATTICE PARAMETERS (ANGSTROMS AND DEGREES) - BOHR = 0.5291772083 ANGSTROM
 PRIMITIVE CELL - CENTRING CODE 4/0 VOLUME=   107.968883 - DENSITY  1.108 g/cm^3
         A              B              C           ALPHA      BETA       GAMMA 
     4.28194760     4.28194760     6.91322566    90.000000  90.000000  58.407463
 *******************************************************************************
 ATOMS IN THE ASYMMETRIC UNIT    5 - ATOMS IN THE UNIT CELL:   12
     ATOM              X/A                 Y/B                 Z/C    
 *******************************************************************************
   1 T   8 O    -3.422164952275E-01 -3.422164952275E-01 -4.351223499621E-01
   2 F   8 O     3.422164952275E-01  3.422164952275E-01  6.487765003788E-02
   3 T   8 O     3.290560383839E-01  3.290560383839E-01  4.397860704994E-01
   4 F   8 O    -3.290560383839E-01 -3.290560383839E-01 -6.021392950062E-02
   5 T   1 H     3.360559673897E-01  3.360559673897E-01  2.965198862867E-01
   6 F   1 H    -3.360559673897E-01 -3.360559673897E-01 -2.034801137133E-01
   7 T   1 H     4.548648849484E-01  4.548648849484E-01  4.857124851452E-01
   8 F   1 H    -4.548648849484E-01 -4.548648849484E-01 -1.428751485477E-02
   9 T   1 H    -8.647655494221E-02 -4.653690394244E-01 -4.837980459846E-01
  10 F   1 H     8.647655494221E-02  4.653690394244E-01  1.620195401543E-02
  11 F   1 H    -4.653690394244E-01 -8.647655494221E-02 -4.837980459846E-01
  12 F   1 H     4.653690394244E-01  8.647655494221E-02  1.620195401543E-02

 TRANSFORMATION MATRIX PRIMITIVE-CRYSTALLOGRAPHIC CELL
  1.0000  1.0000  0.0000 -1.0000  1.0000  0.0000  0.0000  0.0000  1.0000

 *******************************************************************************
 CRYSTALLOGRAPHIC CELL (VOLUME=        215.93776556)
         A              B              C           ALPHA      BETA       GAMMA 
     4.17846586     7.47534105     6.91322566    90.000000  90.000000  90.000000

 COORDINATES IN THE CRYSTALLOGRAPHIC CELL
     ATOM              X/A                 Y/B                 Z/C    
 *******************************************************************************
   1 T   8 O     0.000000000000E+00 -3.422164952275E-01 -4.351223499621E-01
   2 F   8 O    -5.000000000000E-01 -1.577835047725E-01  6.487765003788E-02
   3 T   8 O     5.000000000000E-01 -1.709439616161E-01  4.397860704994E-01
   4 F   8 O     0.000000000000E+00 -3.290560383839E-01 -6.021392950062E-02
   5 T   1 H     5.000000000000E-01 -1.639440326103E-01  2.965198862867E-01
   6 F   1 H     0.000000000000E+00 -3.360559673897E-01 -2.034801137133E-01
   7 T   1 H     5.000000000000E-01 -4.513511505157E-02  4.857124851452E-01
   8 F   1 H    -5.000000000000E-01  4.513511505157E-02 -1.428751485477E-02
   9 T   1 H     1.894462422411E-01 -2.759227971833E-01 -4.837980459846E-01
  10 F   1 H     3.105537577589E-01 -2.240772028167E-01  1.620195401543E-02
  11 F   1 H    -1.894462422411E-01 -2.759227971833E-01 -4.837980459846E-01
  12 F   1 H    -3.105537577589E-01 -2.240772028167E-01  1.620195401543E-02

 T = ATOM BELONGING TO THE ASYMMETRIC UNIT

 TOTAL ENERGY(HF)(AU)(  10) -2.9998919893709E+02     DE (AU)   -1.195E-02

 SYMMETRY ALLOWED FORCES  (COORDINATE, FORCE)

    1 -1.4159537E-02    2  1.0158789E-02    3 -1.2694367E-02    4  1.4010592E-02
    5  3.5000404E-03    6 -8.9475613E-03    7  1.0390553E-02    8  5.4586265E-03
    9  1.3311864E-02   10 -4.0559436E-03   11 -1.1300956E-02   12 -4.9506224E-04
   13  2.9185190E-05

 GRADIENT NORM     0.034826  GRADIENT THRESHOLD     0.500000

 PREDICTED ENERGY CHANGE    -0.120E-01
 SCSCSCSCSCSCSCSCSCSCSCSCSCSCSCSCSCSCSCSCSCSCSCSCSCSCSCSCSCSCSCSCSCSCSCSCSCSCSC
 DISPLACEMENT SCALED BY  0.4110
 NO CONVERGENCE TESTS PERFORMED
           GRADIENT INFORMATIONS AT   --    PREDICTED POINT WRT CURR.POINT
   I  PREV.GRAD   CURR.GRAD   PRED.POINT  OLD.DISP NEW.DISP
    1    0.0114      0.0142      0.0191     -0.1429     -0.0587
    2   -0.0084     -0.0102     -0.0132      0.0590      0.0242
    3    0.0093      0.0127      0.0187     -0.0537     -0.0221
    4   -0.0159     -0.0140     -0.0107      0.0748      0.0307
    5   -0.0100     -0.0035      0.0081      0.0555      0.0228
    6   -0.0016      0.0089      0.0277     -0.1527     -0.0628
    7   -0.0003     -0.0104     -0.0283      0.1103      0.0453
    8    0.0037     -0.0055     -0.0218      0.1339      0.0550
    9   -0.0015     -0.0133     -0.0343      0.1061      0.0436
   10   -0.0130      0.0041      0.0345     -0.1971     -0.0810
   11    0.0258      0.0113     -0.0145     -1.2166     -0.5000
   12    0.0015      0.0005     -0.0013     -0.4312     -0.1772
   13   -0.0002      0.0000      0.0003      0.2026      0.0833
 TTTTTTTTTTTTTTTTTTTTTTTTTTTTTT OPTI        TELAPSE       58.86 TCPU       58.03
 *******************************************************************************
 COORDINATE AND CELL OPTIMIZATION - POINT    5
 *******************************************************************************
 LATTICE PARAMETERS (ANGSTROMS AND DEGREES) - BOHR = 0.5291772083 ANGSTROM
 PRIMITIVE CELL - CENTRING CODE 4/0 VOLUME=    98.318490 - DENSITY  1.217 g/cm^3
         A              B              C           ALPHA      BETA       GAMMA 
     4.16039365     4.16039365     6.70465581    90.000000  90.000000  57.909243
 *******************************************************************************
 ATOMS IN THE ASYMMETRIC UNIT    5 - ATOMS IN THE UNIT CELL:   12
     ATOM              X/A                 Y/B                 Z/C    
 *******************************************************************************
   1 T   8 O    -3.450215915348E-01 -3.450215915348E-01 -4.339987199430E-01
   2 F   8 O     3.450215915348E-01  3.450215915348E-01  6.600128005697E-02
   3 T   8 O     3.280014861473E-01  3.280014861473E-01  4.409575343257E-01
   4 F   8 O    -3.280014861473E-01 -3.280014861473E-01 -5.904246567433E-02
   5 T   1 H     3.371455232312E-01  3.371455232312E-01  2.931858471937E-01
   6 F   1 H    -3.371455232312E-01 -3.371455232312E-01 -2.068141528063E-01
   7 T   1 H     4.570306092841E-01  4.570306092841E-01  4.883413784078E-01
   8 F   1 H    -4.570306092841E-01 -4.570306092841E-01 -1.165862159224E-02
   9 T   1 H    -8.119025848691E-02 -4.708399751307E-01 -4.845930199921E-01
  10 F   1 H     8.119025848691E-02  4.708399751307E-01  1.540698000794E-02
  11 F   1 H    -4.708399751307E-01 -8.119025848691E-02 -4.845930199921E-01
  12 F   1 H     4.708399751307E-01  8.119025848691E-02  1.540698000794E-02

 TRANSFORMATION MATRIX PRIMITIVE-CRYSTALLOGRAPHIC CELL
  1.0000  1.0000  0.0000 -1.0000  1.0000  0.0000  0.0000  0.0000  1.0000

 *******************************************************************************
 CRYSTALLOGRAPHIC CELL (VOLUME=        196.63698029)
         A              B              C           ALPHA      BETA       GAMMA 
     4.02823265     7.28071721     6.70465581    90.000000  90.000000  90.000000

 COORDINATES IN THE CRYSTALLOGRAPHIC CELL
     ATOM              X/A                 Y/B                 Z/C    
 *******************************************************************************
   1 T   8 O     0.000000000000E+00 -3.450215915348E-01 -4.339987199430E-01
   2 F   8 O    -5.000000000000E-01 -1.549784084652E-01  6.600128005697E-02
   3 T   8 O     5.000000000000E-01 -1.719985138527E-01  4.409575343257E-01
   4 F   8 O     0.000000000000E+00 -3.280014861473E-01 -5.904246567433E-02
   5 T   1 H     5.000000000000E-01 -1.628544767688E-01  2.931858471937E-01
   6 F   1 H     0.000000000000E+00 -3.371455232312E-01 -2.068141528063E-01
   7 T   1 H     5.000000000000E-01 -4.296939071589E-02  4.883413784078E-01
   8 F   1 H    -5.000000000000E-01  4.296939071589E-02 -1.165862159224E-02
   9 T   1 H     1.948248583219E-01 -2.760151168088E-01 -4.845930199921E-01
  10 F   1 H     3.051751416781E-01 -2.239848831912E-01  1.540698000794E-02
  11 F   1 H    -1.948248583219E-01 -2.760151168088E-01 -4.845930199921E-01
  12 F   1 H    -3.051751416781E-01 -2.239848831912E-01  1.540698000794E-02

 T = ATOM BELONGING TO THE ASYMMETRIC UNIT

 TOTAL ENERGY(HF)(AU)(  11) -2.9999657772814E+02     DE (AU)   -7.379E-03

 SYMMETRY ALLOWED FORCES  (COORDINATE, FORCE)

    1 -1.4803248E-02    2  1.0270343E-02    3 -1.3704192E-02    4  1.0889325E-02
    5 -1.3427491E-03    6 -1.5130204E-02    7  1.6001055E-02    8  1.1433875E-02
    9  2.0381727E-02   10 -1.5711859E-02   11  3.0539007E-03   12  2.5418379E-04
   13 -6.8027349E-05

 GRADIENT NORM     0.043820  GRADIENT THRESHOLD     0.500000

 PREDICTED ENERGY CHANGE    -0.321E-02
 SCSCSCSCSCSCSCSCSCSCSCSCSCSCSCSCSCSCSCSCSCSCSCSCSCSCSCSCSCSCSCSCSCSCSCSCSCSCSC
 DISPLACEMENT SCALED BY  0.9905
 NO CONVERGENCE TESTS PERFORMED
           GRADIENT INFORMATIONS AT   --    PREDICTED POINT WRT CURR.POINT
   I  PREV.GRAD   CURR.GRAD   PRED.POINT  OLD.DISP NEW.DISP
    1    0.0142      0.0148      0.0153     -0.0785     -0.0777
    2   -0.0102     -0.0103     -0.0104      0.0300      0.0297
    3    0.0127      0.0137      0.0145     -0.0315     -0.0312
    4   -0.0140     -0.0109     -0.0083      0.0340      0.0337
    5   -0.0035      0.0013      0.0054      0.0245      0.0243
    6    0.0089      0.0151      0.0203     -0.0839     -0.0831
    7   -0.0104     -0.0160     -0.0207      0.0529      0.0524
    8   -0.0055     -0.0114     -0.0164      0.0752      0.0745
    9   -0.0133     -0.0204     -0.0263      0.0497      0.0492
   10    0.0041      0.0157      0.0254     -0.1139     -0.1129
   11    0.0113     -0.0031     -0.0150     -0.5048     -0.5000
   12    0.0005     -0.0003     -0.0009     -0.2192     -0.2171
   13    0.0000      0.0001      0.0001      0.0771      0.0764
 TTTTTTTTTTTTTTTTTTTTTTTTTTTTTT OPTI        TELAPSE       73.45 TCPU       72.58
 *******************************************************************************
 COORDINATE AND CELL OPTIMIZATION - POINT    6
 *******************************************************************************
 LATTICE PARAMETERS (ANGSTROMS AND DEGREES) - BOHR = 0.5291772083 ANGSTROM
 PRIMITIVE CELL - CENTRING CODE 4/0 VOLUME=    89.529742 - DENSITY  1.336 g/cm^3
         A              B              C           ALPHA      BETA       GAMMA 
     4.04264088     4.04264088     6.50746788    90.000000  90.000000  57.333989
 *******************************************************************************
 ATOMS IN THE ASYMMETRIC UNIT    5 - ATOMS IN THE UNIT CELL:   12
     ATOM              X/A                 Y/B                 Z/C    
 *******************************************************************************
   1 T   8 O    -3.487349780466E-01 -3.487349780466E-01 -4.326199560801E-01
   2 F   8 O     3.487349780466E-01  3.487349780466E-01  6.738004391989E-02
   3 T   8 O     3.265089620860E-01  3.265089620860E-01  4.422118337747E-01
   4 F   8 O    -3.265089620860E-01 -3.265089620860E-01 -5.778816622529E-02
   5 T   1 H     3.383051991049E-01  3.383051991049E-01  2.888702971253E-01
   6 F   1 H    -3.383051991049E-01 -3.383051991049E-01 -2.111297028747E-01
   7 T   1 H     4.595326716414E-01  4.595326716414E-01  4.919903177224E-01
   8 F   1 H    -4.595326716414E-01 -4.595326716414E-01 -8.009682277620E-03
   9 T   1 H    -7.449810785381E-02 -4.784630483645E-01 -4.855762462712E-01
  10 F   1 H     7.449810785381E-02  4.784630483645E-01  1.442375372884E-02
  11 F   1 H    -4.784630483645E-01 -7.449810785381E-02 -4.855762462712E-01
  12 F   1 H     4.784630483645E-01  7.449810785381E-02  1.442375372884E-02

 TRANSFORMATION MATRIX PRIMITIVE-CRYSTALLOGRAPHIC CELL
  1.0000  1.0000  0.0000 -1.0000  1.0000  0.0000  0.0000  0.0000  1.0000

 *******************************************************************************
 CRYSTALLOGRAPHIC CELL (VOLUME=        179.05948498)
         A              B              C           ALPHA      BETA       GAMMA 
     3.87865630     7.09420936     6.50746788    90.000000  90.000000  90.000000

 COORDINATES IN THE CRYSTALLOGRAPHIC CELL
     ATOM              X/A                 Y/B                 Z/C    
 *******************************************************************************
   1 T   8 O     0.000000000000E+00 -3.487349780466E-01 -4.326199560801E-01
   2 F   8 O    -5.000000000000E-01 -1.512650219534E-01  6.738004391989E-02
   3 T   8 O    -5.000000000000E-01 -1.734910379140E-01  4.422118337747E-01
   4 F   8 O     0.000000000000E+00 -3.265089620860E-01 -5.778816622529E-02
   5 T   1 H    -5.000000000000E-01 -1.616948008951E-01  2.888702971253E-01
   6 F   1 H     0.000000000000E+00 -3.383051991049E-01 -2.111297028747E-01
   7 T   1 H    -5.000000000000E-01 -4.046732835864E-02  4.919903177224E-01
   8 F   1 H    -5.000000000000E-01  4.046732835864E-02 -8.009682277620E-03
   9 T   1 H     2.019824702553E-01 -2.764805781091E-01 -4.855762462712E-01
  10 F   1 H     2.980175297447E-01 -2.235194218909E-01  1.442375372884E-02
  11 F   1 H    -2.019824702553E-01 -2.764805781091E-01 -4.855762462712E-01
  12 F   1 H    -2.980175297447E-01 -2.235194218909E-01  1.442375372884E-02

 T = ATOM BELONGING TO THE ASYMMETRIC UNIT

 TOTAL ENERGY(HF)(AU)(  11) -2.9999963795793E+02     DE (AU)   -3.060E-03

 SYMMETRY ALLOWED FORCES  (COORDINATE, FORCE)

    1 -1.0048029E-02    2  7.1225741E-03    3 -1.0220272E-02    4  3.1663211E-03
    5 -5.4702009E-03    6 -1.5440227E-02    7  1.5485905E-02    8  1.3500165E-02
    9  2.0373269E-02   10 -2.1724477E-02   11  1.5695332E-02   12  8.8507150E-04
   13 -3.5264331E-05

 GRADIENT NORM     0.045724  GRADIENT THRESHOLD     0.500000

 PREDICTED ENERGY CHANGE    -0.832E-03

 MAX GRADIENT      0.021724  THRESHOLD              0.000450 CONVERGED NO
 RMS GRADIENT      0.012682  THRESHOLD              0.000300 CONVERGED NO
 MAX DISPLAC.      0.037097  THRESHOLD              0.001800 CONVERGED NO
 RMS DISPLAC.      0.017069  THRESHOLD              0.001200 CONVERGED NO
 TTTTTTTTTTTTTTTTTTTTTTTTTTTTTT OPTI        TELAPSE       87.80 TCPU       86.92
 *******************************************************************************
 COORDINATE AND CELL OPTIMIZATION - POINT    7
 *******************************************************************************
 LATTICE PARAMETERS (ANGSTROMS AND DEGREES) - BOHR = 0.5291772083 ANGSTROM
 PRIMITIVE CELL - CENTRING CODE 4/0 VOLUME=    89.728796 - DENSITY  1.333 g/cm^3
         A              B              C           ALPHA      BETA       GAMMA 
     4.04705493     4.04705493     6.51432403    90.000000  90.000000  57.243467
 *******************************************************************************
 ATOMS IN THE ASYMMETRIC UNIT    5 - ATOMS IN THE UNIT CELL:   12
     ATOM              X/A                 Y/B                 Z/C    
 *******************************************************************************
   1 T   8 O    -3.496507876656E-01 -3.496507876656E-01 -4.323831031117E-01
   2 F   8 O     3.496507876656E-01  3.496507876656E-01  6.761689688835E-02
   3 T   8 O     3.258370067771E-01  3.258370067771E-01  4.422342588709E-01
   4 F   8 O    -3.258370067771E-01 -3.258370067771E-01 -5.776574112910E-02
   5 T   1 H     3.381925360974E-01  3.381925360974E-01  2.880587921618E-01
   6 F   1 H    -3.381925360974E-01 -3.381925360974E-01 -2.119412078382E-01
   7 T   1 H     4.594179787167E-01  4.594179787167E-01  4.929068493199E-01
   8 F   1 H    -4.594179787167E-01 -4.594179787167E-01 -7.093150680090E-03
   9 T   1 H    -7.351017831288E-02 -4.805662244355E-01 -4.857583986205E-01
  10 F   1 H     7.351017831288E-02  4.805662244355E-01  1.424160137954E-02
  11 F   1 H    -4.805662244355E-01 -7.351017831288E-02 -4.857583986205E-01
  12 F   1 H     4.805662244355E-01  7.351017831288E-02  1.424160137954E-02

 TRANSFORMATION MATRIX PRIMITIVE-CRYSTALLOGRAPHIC CELL
  1.0000  1.0000  0.0000 -1.0000  1.0000  0.0000  0.0000  0.0000  1.0000

 *******************************************************************************
 CRYSTALLOGRAPHIC CELL (VOLUME=        179.45759262)
         A              B              C           ALPHA      BETA       GAMMA 
     3.87727986     7.10502043     6.51432403    90.000000  90.000000  90.000000

 COORDINATES IN THE CRYSTALLOGRAPHIC CELL
     ATOM              X/A                 Y/B                 Z/C    
 *******************************************************************************
   1 T   8 O     0.000000000000E+00 -3.496507876656E-01 -4.323831031117E-01
   2 F   8 O    -5.000000000000E-01 -1.503492123344E-01  6.761689688835E-02
   3 T   8 O     5.000000000000E-01 -1.741629932229E-01  4.422342588709E-01
   4 F   8 O     0.000000000000E+00 -3.258370067771E-01 -5.776574112910E-02
   5 T   1 H     5.000000000000E-01 -1.618074639026E-01  2.880587921618E-01
   6 F   1 H     0.000000000000E+00 -3.381925360974E-01 -2.119412078382E-01
   7 T   1 H     5.000000000000E-01 -4.058202128332E-02  4.929068493199E-01
   8 F   1 H    -5.000000000000E-01  4.058202128332E-02 -7.093150680090E-03
   9 T   1 H     2.035280230613E-01 -2.770382013742E-01 -4.857583986205E-01
  10 F   1 H     2.964719769387E-01 -2.229617986258E-01  1.424160137954E-02
  11 F   1 H    -2.035280230613E-01 -2.770382013742E-01 -4.857583986205E-01
  12 F   1 H    -2.964719769387E-01 -2.229617986258E-01  1.424160137954E-02

 T = ATOM BELONGING TO THE ASYMMETRIC UNIT

 TOTAL ENERGY(HF)(AU)(   7) -3.0000096393169E+02     DE (AU)   -1.326E-03

 SYMMETRY ALLOWED FORCES  (COORDINATE, FORCE)

    1 -2.5064556E-03    2  2.0844695E-03    3 -3.1013904E-03    4 -1.9614518E-03
    5 -5.6653970E-03    6 -1.0048405E-02    7  8.5322027E-03    8  9.1614214E-03
    9  1.1566317E-02   10 -1.6648400E-02   11  8.2425954E-03   12  9.8193013E-04
   13 -1.6605692E-04

 GRADIENT NORM     0.028174  GRADIENT THRESHOLD     0.500000

 PREDICTED ENERGY CHANGE    -0.133E-02

 MAX GRADIENT      0.016648  THRESHOLD              0.000450 CONVERGED NO
 RMS GRADIENT      0.007814  THRESHOLD              0.000300 CONVERGED NO
 MAX DISPLAC.      0.118473  THRESHOLD              0.001800 CONVERGED NO
 RMS DISPLAC.      0.060480  THRESHOLD              0.001200 CONVERGED NO
 TTTTTTTTTTTTTTTTTTTTTTTTTTTTTT OPTI        TELAPSE      102.05 TCPU      101.13
 *******************************************************************************
 COORDINATE AND CELL OPTIMIZATION - POINT    8
 *******************************************************************************
 LATTICE PARAMETERS (ANGSTROMS AND DEGREES) - BOHR = 0.5291772083 ANGSTROM
 PRIMITIVE CELL - CENTRING CODE 4/0 VOLUME=    88.379809 - DENSITY  1.354 g/cm^3
         A              B              C           ALPHA      BETA       GAMMA 
     4.01642511     4.01642511     6.48703642    90.000000  90.000000  57.624172
 *******************************************************************************
 ATOMS IN THE ASYMMETRIC UNIT    5 - ATOMS IN THE UNIT CELL:   12
     ATOM              X/A                 Y/B                 Z/C    
 *******************************************************************************
   1 T   8 O    -3.488288849178E-01 -3.488288849178E-01 -4.318575630491E-01
   2 F   8 O     3.488288849178E-01  3.488288849178E-01  6.814243695094E-02
   3 T   8 O     3.256843229556E-01  3.256843229556E-01  4.419958818354E-01
   4 F   8 O    -3.256843229556E-01 -3.256843229556E-01 -5.800411816455E-02
   5 T   1 H     3.372031281773E-01  3.372031281773E-01  2.855014967057E-01
   6 F   1 H    -3.372031281773E-01 -3.372031281773E-01 -2.144985032943E-01
   7 T   1 H     4.615745639205E-01  4.615745639205E-01  4.952672573292E-01
   8 F   1 H    -4.615745639205E-01 -4.615745639205E-01 -4.732742670848E-03
   9 T   1 H    -6.746373331769E-02 -4.845942154190E-01 -4.858035364106E-01
  10 F   1 H     6.746373331769E-02  4.845942154190E-01  1.419646358936E-02
  11 F   1 H    -4.845942154190E-01 -6.746373331769E-02 -4.858035364106E-01
  12 F   1 H     4.845942154190E-01  6.746373331769E-02  1.419646358936E-02

 TRANSFORMATION MATRIX PRIMITIVE-CRYSTALLOGRAPHIC CELL
  1.0000  1.0000  0.0000 -1.0000  1.0000  0.0000  0.0000  0.0000  1.0000

 *******************************************************************************
 CRYSTALLOGRAPHIC CELL (VOLUME=        176.75961841)
         A              B              C           ALPHA      BETA       GAMMA 
     3.87133991     7.03842382     6.48703642    90.000000  90.000000  90.000000

 COORDINATES IN THE CRYSTALLOGRAPHIC CELL
     ATOM              X/A                 Y/B                 Z/C    
 *******************************************************************************
   1 T   8 O     0.000000000000E+00 -3.488288849178E-01 -4.318575630491E-01
   2 F   8 O    -5.000000000000E-01 -1.511711150822E-01  6.814243695094E-02
   3 T   8 O     5.000000000000E-01 -1.743156770444E-01  4.419958818354E-01
   4 F   8 O     0.000000000000E+00 -3.256843229556E-01 -5.800411816455E-02
   5 T   1 H     5.000000000000E-01 -1.627968718227E-01  2.855014967057E-01
   6 F   1 H     0.000000000000E+00 -3.372031281773E-01 -2.144985032943E-01
   7 T   1 H     5.000000000000E-01 -3.842543607949E-02  4.952672573292E-01
   8 F   1 H    -5.000000000000E-01  3.842543607949E-02 -4.732742670848E-03
   9 T   1 H     2.085652410507E-01 -2.760289743684E-01 -4.858035364106E-01
  10 F   1 H     2.914347589493E-01 -2.239710256316E-01  1.419646358936E-02
  11 F   1 H    -2.085652410507E-01 -2.760289743684E-01 -4.858035364106E-01
  12 F   1 H    -2.914347589493E-01 -2.239710256316E-01  1.419646358936E-02

 T = ATOM BELONGING TO THE ASYMMETRIC UNIT

 TOTAL ENERGY(HF)(AU)(  10) -3.0000267833977E+02     DE (AU)   -1.714E-03

 SYMMETRY ALLOWED FORCES  (COORDINATE, FORCE)

    1  4.2349583E-03    2 -2.4460753E-03    3  1.6097283E-03    4 -1.8437241E-03
    5 -3.4264076E-03    6 -3.0564294E-03    7  9.9407780E-04    8  2.9213338E-03
    9  5.9850402E-04   10 -5.2952123E-03   11  2.5901578E-04   12  3.7603574E-04
   13 -3.2697936E-04

 GRADIENT NORM     0.009446  GRADIENT THRESHOLD     0.500000

 PREDICTED ENERGY CHANGE    -0.352E-03

 MAX GRADIENT      0.005295  THRESHOLD              0.000450 CONVERGED NO
 RMS GRADIENT      0.002620  THRESHOLD              0.000300 CONVERGED NO
 MAX DISPLAC.      0.142144  THRESHOLD              0.001800 CONVERGED NO
 RMS DISPLAC.      0.064117  THRESHOLD              0.001200 CONVERGED NO
 TTTTTTTTTTTTTTTTTTTTTTTTTTTTTT OPTI        TELAPSE      116.60 TCPU      115.65
 *******************************************************************************
 COORDINATE AND CELL OPTIMIZATION - POINT    9
 *******************************************************************************
 LATTICE PARAMETERS (ANGSTROMS AND DEGREES) - BOHR = 0.5291772083 ANGSTROM
 PRIMITIVE CELL - CENTRING CODE 4/0 VOLUME=    87.086604 - DENSITY  1.374 g/cm^3
         A              B              C           ALPHA      BETA       GAMMA 
     3.98383098     3.98383098     6.46708583    90.000000  90.000000  58.046584
 *******************************************************************************
 ATOMS IN THE ASYMMETRIC UNIT    5 - ATOMS IN THE UNIT CELL:   12
     ATOM              X/A                 Y/B                 Z/C    
 *******************************************************************************
   1 T   8 O    -3.465147906855E-01 -3.465147906855E-01 -4.317628884989E-01
   2 F   8 O     3.465147906855E-01  3.465147906855E-01  6.823711150112E-02
   3 T   8 O     3.263275445567E-01  3.263275445567E-01  4.420016136907E-01
   4 F   8 O    -3.263275445567E-01 -3.263275445567E-01 -5.799838630927E-02
   5 T   1 H     3.361923291442E-01  3.361923291442E-01  2.841071929927E-01
   6 F   1 H    -3.361923291442E-01 -3.361923291442E-01 -2.158928070073E-01
   7 T   1 H     4.640057946762E-01  4.640057946762E-01  4.966170778053E-01
   8 F   1 H    -4.640057946762E-01 -4.640057946762E-01 -3.382922194667E-03
   9 T   1 H    -6.231993006379E-02 -4.856661157760E-01 -4.858314979950E-01
  10 F   1 H     6.231993006379E-02  4.856661157760E-01  1.416850200505E-02
  11 F   1 H    -4.856661157760E-01 -6.231993006379E-02 -4.858314979950E-01
  12 F   1 H     4.856661157760E-01  6.231993006379E-02  1.416850200505E-02

 TRANSFORMATION MATRIX PRIMITIVE-CRYSTALLOGRAPHIC CELL
  1.0000  1.0000  0.0000 -1.0000  1.0000  0.0000  0.0000  0.0000  1.0000

 *******************************************************************************
 CRYSTALLOGRAPHIC CELL (VOLUME=        174.17320895)
         A              B              C           ALPHA      BETA       GAMMA 
     3.86563175     6.96710329     6.46708583    90.000000  90.000000  90.000000

 COORDINATES IN THE CRYSTALLOGRAPHIC CELL
     ATOM              X/A                 Y/B                 Z/C    
 *******************************************************************************
   1 T   8 O     0.000000000000E+00 -3.465147906855E-01 -4.317628884989E-01
   2 F   8 O    -5.000000000000E-01 -1.534852093145E-01  6.823711150112E-02
   3 T   8 O     5.000000000000E-01 -1.736724554433E-01  4.420016136907E-01
   4 F   8 O     0.000000000000E+00 -3.263275445567E-01 -5.799838630927E-02
   5 T   1 H     5.000000000000E-01 -1.638076708558E-01  2.841071929927E-01
   6 F   1 H     0.000000000000E+00 -3.361923291442E-01 -2.158928070073E-01
   7 T   1 H     5.000000000000E-01 -3.599420532378E-02  4.966170778053E-01
   8 F   1 H    -5.000000000000E-01  3.599420532378E-02 -3.382922194667E-03
   9 T   1 H     2.116730928561E-01 -2.739930229199E-01 -4.858314979950E-01
  10 F   1 H     2.883269071439E-01 -2.260069770801E-01  1.416850200505E-02
  11 F   1 H    -2.116730928561E-01 -2.739930229199E-01 -4.858314979950E-01
  12 F   1 H    -2.883269071439E-01 -2.260069770801E-01  1.416850200505E-02

 T = ATOM BELONGING TO THE ASYMMETRIC UNIT

 TOTAL ENERGY(HF)(AU)(  10) -3.0000309842578E+02     DE (AU)   -4.201E-04

 SYMMETRY ALLOWED FORCES  (COORDINATE, FORCE)

    1  1.4787385E-03    2  1.9966068E-06    3  1.3947470E-03    4 -7.4898103E-04
    5 -1.2605757E-03    6 -3.0384030E-04    7  6.8047514E-04    8  9.3268217E-04
    9 -1.0420677E-03   10 -3.3784807E-04   11 -4.3745330E-04   12  3.3967011E-04
   13  5.5527883E-06

 GRADIENT NORM     0.003035  GRADIENT THRESHOLD     0.500000

 PREDICTED ENERGY CHANGE    -0.681E-04

 MAX GRADIENT      0.001479  THRESHOLD              0.000450 CONVERGED NO
 RMS GRADIENT      0.000842  THRESHOLD              0.000300 CONVERGED NO
 MAX DISPLAC.      0.139544  THRESHOLD              0.001800 CONVERGED NO
 RMS DISPLAC.      0.046385  THRESHOLD              0.001200 CONVERGED NO
 TTTTTTTTTTTTTTTTTTTTTTTTTTTTTT OPTI        TELAPSE      131.22 TCPU      130.24
 *******************************************************************************
 COORDINATE AND CELL OPTIMIZATION - POINT   10
 *******************************************************************************
 LATTICE PARAMETERS (ANGSTROMS AND DEGREES) - BOHR = 0.5291772083 ANGSTROM
 PRIMITIVE CELL - CENTRING CODE 4/0 VOLUME=    86.603835 - DENSITY  1.381 g/cm^3
         A              B              C           ALPHA      BETA       GAMMA 
     3.97132388     3.97132388     6.44766499    90.000000  90.000000  58.392209
 *******************************************************************************
 ATOMS IN THE ASYMMETRIC UNIT    5 - ATOMS IN THE UNIT CELL:   12
     ATOM              X/A                 Y/B                 Z/C    
 *******************************************************************************
   1 T   8 O    -3.447734461354E-01 -3.447734461354E-01 -4.317169639724E-01
   2 F   8 O     3.447734461354E-01  3.447734461354E-01  6.828303602764E-02
   3 T   8 O     3.274863929922E-01  3.274863929922E-01  4.420567046614E-01
   4 F   8 O    -3.274863929922E-01 -3.274863929922E-01 -5.794329533859E-02
   5 T   1 H     3.360579545844E-01  3.360579545844E-01  2.835165474980E-01
   6 F   1 H    -3.360579545844E-01 -3.360579545844E-01 -2.164834525020E-01
   7 T   1 H     4.660124386457E-01  4.660124386457E-01  4.970631762593E-01
   8 F   1 H    -4.660124386457E-01 -4.660124386457E-01 -2.936823740749E-03
   9 T   1 H    -6.002403251418E-02 -4.847823189488E-01 -4.858097322232E-01
  10 F   1 H     6.002403251418E-02  4.847823189488E-01  1.419026777683E-02
  11 F   1 H    -4.847823189488E-01 -6.002403251418E-02 -4.858097322232E-01
  12 F   1 H     4.847823189488E-01  6.002403251418E-02  1.419026777683E-02

 TRANSFORMATION MATRIX PRIMITIVE-CRYSTALLOGRAPHIC CELL
  1.0000  1.0000  0.0000 -1.0000  1.0000  0.0000  0.0000  0.0000  1.0000

 *******************************************************************************
 CRYSTALLOGRAPHIC CELL (VOLUME=        173.20766901)
         A              B              C           ALPHA      BETA       GAMMA 
     3.87442601     6.93357603     6.44766499    90.000000  90.000000  90.000000

 COORDINATES IN THE CRYSTALLOGRAPHIC CELL
     ATOM              X/A                 Y/B                 Z/C    
 *******************************************************************************
   1 T   8 O     0.000000000000E+00 -3.447734461354E-01 -4.317169639724E-01
   2 F   8 O    -5.000000000000E-01 -1.552265538646E-01  6.828303602764E-02
   3 T   8 O     5.000000000000E-01 -1.725136070078E-01  4.420567046614E-01
   4 F   8 O     0.000000000000E+00 -3.274863929922E-01 -5.794329533859E-02
   5 T   1 H     5.000000000000E-01 -1.639420454156E-01  2.835165474980E-01
   6 F   1 H     0.000000000000E+00 -3.360579545844E-01 -2.164834525020E-01
   7 T   1 H     5.000000000000E-01 -3.398756135435E-02  4.970631762593E-01
   8 F   1 H    -5.000000000000E-01  3.398756135435E-02 -2.936823740749E-03
   9 T   1 H     2.123791432173E-01 -2.724031757315E-01 -4.858097322232E-01
  10 F   1 H     2.876208567827E-01 -2.275968242685E-01  1.419026777683E-02
  11 F   1 H    -2.123791432173E-01 -2.724031757315E-01 -4.858097322232E-01
  12 F   1 H    -2.876208567827E-01 -2.275968242685E-01  1.419026777683E-02

 T = ATOM BELONGING TO THE ASYMMETRIC UNIT

 TOTAL ENERGY(HF)(AU)(   8) -3.0000316367918E+02     DE (AU)   -6.525E-05

 SYMMETRY ALLOWED FORCES  (COORDINATE, FORCE)

    1  1.2966432E-03    2 -6.5409855E-04    3 -1.1101822E-03    4  2.3660214E-03
    5 -2.0928752E-04    6  3.0979494E-04    7  2.3606956E-04    8  1.0810450E-04
    9 -3.1505812E-04   10  9.8086391E-04   11 -1.2079435E-04   12 -2.0299886E-04
   13 -9.2836077E-05

 GRADIENT NORM     0.003205  GRADIENT THRESHOLD     0.500000

 PREDICTED ENERGY CHANGE    -0.239E-04

 MAX GRADIENT      0.002366  THRESHOLD              0.000450 CONVERGED NO
 RMS GRADIENT      0.000889  THRESHOLD              0.000300 CONVERGED NO
 MAX DISPLAC.      0.036438  THRESHOLD              0.001800 CONVERGED NO
 RMS DISPLAC.      0.019377  THRESHOLD              0.001200 CONVERGED NO
 TTTTTTTTTTTTTTTTTTTTTTTTTTTTTT OPTI        TELAPSE      145.95 TCPU      144.83
 *******************************************************************************
 COORDINATE AND CELL OPTIMIZATION - POINT   11
 *******************************************************************************
 LATTICE PARAMETERS (ANGSTROMS AND DEGREES) - BOHR = 0.5291772083 ANGSTROM
 PRIMITIVE CELL - CENTRING CODE 4/0 VOLUME=    86.512472 - DENSITY  1.383 g/cm^3
         A              B              C           ALPHA      BETA       GAMMA 
     3.96735575     3.96735575     6.44611240    90.000000  90.000000  58.502750
 *******************************************************************************
 ATOMS IN THE ASYMMETRIC UNIT    5 - ATOMS IN THE UNIT CELL:   12
     ATOM              X/A                 Y/B                 Z/C    
 *******************************************************************************
   1 T   8 O    -3.433979316055E-01 -3.433979316055E-01 -4.318987961302E-01
   2 F   8 O     3.433979316055E-01  3.433979316055E-01  6.810120386981E-02
   3 T   8 O     3.280953779264E-01  3.280953779264E-01  4.423444098168E-01
[...]
 *******************************************************************************
 LATTICE PARAMETERS (ANGSTROMS AND DEGREES) - BOHR = 0.5291772083 ANGSTROM
 PRIMITIVE CELL - CENTRING CODE 4/0 VOLUME=    86.562962 - DENSITY  1.382 g/cm^3
         A              B              C           ALPHA      BETA       GAMMA 
     3.96991056     3.96991056     6.43235456    90.000000  90.000000  58.637055
 *******************************************************************************
 ATOMS IN THE ASYMMETRIC UNIT    5 - ATOMS IN THE UNIT CELL:   12
     ATOM              X/A                 Y/B                 Z/C    
 *******************************************************************************
   1 T   8 O    -3.418927906866E-01 -3.418927906866E-01 -4.322534091176E-01
   2 F   8 O     3.418927906866E-01  3.418927906866E-01  6.774659088235E-02
   3 T   8 O     3.293935912746E-01  3.293935912746E-01  4.430021478055E-01
   4 F   8 O    -3.293935912746E-01 -3.293935912746E-01 -5.699785219454E-02
   5 T   1 H     3.361287455589E-01  3.361287455589E-01  2.839397479922E-01
   6 F   1 H    -3.361287455589E-01 -3.361287455589E-01 -2.160602520078E-01
   7 T   1 H     4.688185731272E-01  4.688185731272E-01  4.966344401271E-01
   8 F   1 H    -4.688185731272E-01 -4.688185731272E-01 -3.365559872880E-03
   9 T   1 H    -5.752671537685E-02 -4.812559064103E-01 -4.860114634036E-01
  10 F   1 H     5.752671537685E-02  4.812559064103E-01  1.398853659645E-02
  11 F   1 H    -4.812559064103E-01 -5.752671537685E-02 -4.860114634036E-01
  12 F   1 H     4.812559064103E-01  5.752671537685E-02  1.398853659645E-02

 TRANSFORMATION MATRIX PRIMITIVE-CRYSTALLOGRAPHIC CELL
  1.0000  1.0000  0.0000 -1.0000  1.0000  0.0000  0.0000  0.0000  1.0000

 *******************************************************************************
 CRYSTALLOGRAPHIC CELL (VOLUME=        173.12592456)
         A              B              C           ALPHA      BETA       GAMMA 
     3.88784791     6.92281720     6.43235456    90.000000  90.000000  90.000000

 COORDINATES IN THE CRYSTALLOGRAPHIC CELL
     ATOM              X/A                 Y/B                 Z/C    
 *******************************************************************************
   1 T   8 O     0.000000000000E+00 -3.418927906866E-01 -4.322534091176E-01
   2 F   8 O    -5.000000000000E-01 -1.581072093134E-01  6.774659088235E-02
   3 T   8 O     5.000000000000E-01 -1.706064087254E-01  4.430021478055E-01
   4 F   8 O     0.000000000000E+00 -3.293935912746E-01 -5.699785219454E-02
   5 T   1 H     5.000000000000E-01 -1.638712544411E-01  2.839397479922E-01
   6 F   1 H     0.000000000000E+00 -3.361287455589E-01 -2.160602520078E-01
   7 T   1 H     5.000000000000E-01 -3.118142687277E-02  4.966344401271E-01
   8 F   1 H    -5.000000000000E-01  3.118142687277E-02 -3.365559872880E-03
   9 T   1 H     2.118645955167E-01 -2.693913108936E-01 -4.860114634036E-01
  10 F   1 H     2.881354044833E-01 -2.306086891064E-01  1.398853659645E-02
  11 F   1 H    -2.118645955167E-01 -2.693913108936E-01 -4.860114634036E-01
  12 F   1 H    -2.881354044833E-01 -2.306086891064E-01  1.398853659645E-02

 T = ATOM BELONGING TO THE ASYMMETRIC UNIT

 TOTAL ENERGY(HF)(AU)(   3) -3.0000321330039E+02     DE (AU)   -6.975E-07

 SYMMETRY ALLOWED FORCES  (COORDINATE, FORCE)

    1 -5.9239901E-06    2 -1.5977573E-04    3  1.3538987E-04    4 -3.4296154E-05
    5 -1.1290418E-04    6 -3.9343508E-05    7  6.0818086E-07    8 -1.3201665E-04
    9 -3.4239452E-05   10 -7.1340693E-05   11 -2.6848746E-05   12 -5.0306751E-06
   13 -1.2038392E-05

 GRADIENT NORM     0.000290  GRADIENT THRESHOLD     0.500000

 PREDICTED ENERGY CHANGE    -0.212E-06

 MAX GRADIENT      0.000160  THRESHOLD              0.000450 CONVERGED YES
 RMS GRADIENT      0.000080  THRESHOLD              0.000300 CONVERGED YES
 MAX DISPLAC.      0.002866  THRESHOLD              0.001800 CONVERGED NO
 RMS DISPLAC.      0.001418  THRESHOLD              0.001200 CONVERGED NO
 TTTTTTTTTTTTTTTTTTTTTTTTTTTTTT OPTI        TELAPSE      220.42 TCPU      217.89
 *******************************************************************************
 COORDINATE AND CELL OPTIMIZATION - POINT   16
 *******************************************************************************
 LATTICE PARAMETERS (ANGSTROMS AND DEGREES) - BOHR = 0.5291772083 ANGSTROM
 PRIMITIVE CELL - CENTRING CODE 4/0 VOLUME=    86.555034 - DENSITY  1.382 g/cm^3
         A              B              C           ALPHA      BETA       GAMMA 
     3.96970692     3.96970692     6.43270671    90.000000  90.000000  58.632942
 *******************************************************************************
 ATOMS IN THE ASYMMETRIC UNIT    5 - ATOMS IN THE UNIT CELL:   12
     ATOM              X/A                 Y/B                 Z/C    
 *******************************************************************************
   1 T   8 O    -3.418572804380E-01 -3.418572804380E-01 -4.322664623353E-01
   2 F   8 O     3.418572804380E-01  3.418572804380E-01  6.773353766465E-02
   3 T   8 O     3.294615064688E-01  3.294615064688E-01  4.429954912287E-01
   4 F   8 O    -3.294615064688E-01 -3.294615064688E-01 -5.700450877129E-02
   5 T   1 H     3.361296734494E-01  3.361296734494E-01  2.839254956393E-01
   6 F   1 H    -3.361296734494E-01 -3.361296734494E-01 -2.160745043607E-01
   7 T   1 H     4.689136632857E-01  4.689136632857E-01  4.965752204218E-01
   8 F   1 H    -4.689136632857E-01 -4.689136632857E-01 -3.424779578153E-03
   9 T   1 H    -5.741378610329E-02 -4.812270124514E-01 -4.859648724772E-01
  10 F   1 H     5.741378610329E-02  4.812270124514E-01  1.403512752277E-02
  11 F   1 H    -4.812270124514E-01 -5.741378610329E-02 -4.859648724772E-01
  12 F   1 H     4.812270124514E-01  5.741378610329E-02  1.403512752277E-02

 TRANSFORMATION MATRIX PRIMITIVE-CRYSTALLOGRAPHIC CELL
  1.0000  1.0000  0.0000 -1.0000  1.0000  0.0000  0.0000  0.0000  1.0000

 *******************************************************************************
 CRYSTALLOGRAPHIC CELL (VOLUME=        173.11006784)
         A              B              C           ALPHA      BETA       GAMMA 
     3.88740006     6.92260160     6.43270671    90.000000  90.000000  90.000000

 COORDINATES IN THE CRYSTALLOGRAPHIC CELL
     ATOM              X/A                 Y/B                 Z/C    
 *******************************************************************************
   1 T   8 O     0.000000000000E+00 -3.418572804380E-01 -4.322664623353E-01
   2 F   8 O    -5.000000000000E-01 -1.581427195620E-01  6.773353766465E-02
   3 T   8 O    -5.000000000000E-01 -1.705384935312E-01  4.429954912287E-01
   4 F   8 O     0.000000000000E+00 -3.294615064688E-01 -5.700450877129E-02
   5 T   1 H    -5.000000000000E-01 -1.638703265506E-01  2.839254956393E-01
   6 F   1 H     0.000000000000E+00 -3.361296734494E-01 -2.160745043607E-01
   7 T   1 H    -5.000000000000E-01 -3.108633671433E-02  4.965752204218E-01
   8 F   1 H    -5.000000000000E-01  3.108633671433E-02 -3.424779578153E-03
   9 T   1 H     2.119066131740E-01 -2.693203992773E-01 -4.859648724772E-01
  10 F   1 H     2.880933868260E-01 -2.306796007227E-01  1.403512752277E-02
  11 F   1 H    -2.119066131740E-01 -2.693203992773E-01 -4.859648724772E-01
  12 F   1 H    -2.880933868260E-01 -2.306796007227E-01  1.403512752277E-02

 T = ATOM BELONGING TO THE ASYMMETRIC UNIT

 TOTAL ENERGY(HF)(AU)(   3) -3.0000321340274E+02     DE (AU)   -1.023E-07

 SYMMETRY ALLOWED FORCES  (COORDINATE, FORCE)

    1  4.9070908E-05    2 -3.4144834E-05    3  7.2166085E-05    4 -1.0688575E-04
    5 -8.1539770E-05    6  6.3555837E-05    7  1.7624420E-05    8 -4.1810195E-05
    9 -5.1035892E-05   10 -3.8521629E-05   11 -5.1597595E-05   12 -3.0411008E-06
   13  7.0227676E-06

 GRADIENT NORM     0.000199  GRADIENT THRESHOLD     0.500000

 PREDICTED ENERGY CHANGE    -0.103E-06

 MAX GRADIENT      0.000107  THRESHOLD              0.000450 CONVERGED YES
 RMS GRADIENT      0.000055  THRESHOLD              0.000300 CONVERGED YES
 MAX DISPLAC.      0.002860  THRESHOLD              0.001800 CONVERGED NO
 RMS DISPLAC.      0.001497  THRESHOLD              0.001200 CONVERGED NO
 TTTTTTTTTTTTTTTTTTTTTTTTTTTTTT OPTI        TELAPSE      234.98 TCPU      232.43
 *******************************************************************************
 COORDINATE AND CELL OPTIMIZATION - POINT   17
 *******************************************************************************
 LATTICE PARAMETERS (ANGSTROMS AND DEGREES) - BOHR = 0.5291772083 ANGSTROM
 PRIMITIVE CELL - CENTRING CODE 4/0 VOLUME=    86.531649 - DENSITY  1.382 g/cm^3
         A              B              C           ALPHA      BETA       GAMMA 
     3.96941710     3.96941710     6.43225497    90.000000  90.000000  58.627871
 *******************************************************************************
 ATOMS IN THE ASYMMETRIC UNIT    5 - ATOMS IN THE UNIT CELL:   12
     ATOM              X/A                 Y/B                 Z/C    
 *******************************************************************************
   1 T   8 O    -3.417874308561E-01 -3.417874308561E-01 -4.322748147320E-01
   2 F   8 O     3.417874308561E-01  3.417874308561E-01  6.772518526799E-02
   3 T   8 O     3.295482630733E-01  3.295482630733E-01  4.429967134076E-01
   4 F   8 O    -3.295482630733E-01 -3.295482630733E-01 -5.700328659238E-02
   5 T   1 H     3.361259685640E-01  3.361259685640E-01  2.839135212971E-01
   6 F   1 H    -3.361259685640E-01 -3.361259685640E-01 -2.160864787029E-01
   7 T   1 H     4.690370421318E-01  4.690370421318E-01  4.965308135030E-01
   8 F   1 H    -4.690370421318E-01 -4.690370421318E-01 -3.469186496983E-03
   9 T   1 H    -5.726999743945E-02 -4.811799639320E-01 -4.859331167379E-01
  10 F   1 H     5.726999743945E-02  4.811799639320E-01  1.406688326214E-02
  11 F   1 H    -4.811799639320E-01 -5.726999743945E-02 -4.859331167379E-01
  12 F   1 H     4.811799639320E-01  5.726999743945E-02  1.406688326214E-02

 TRANSFORMATION MATRIX PRIMITIVE-CRYSTALLOGRAPHIC CELL
  1.0000  1.0000  0.0000 -1.0000  1.0000  0.0000  0.0000  0.0000  1.0000

 *******************************************************************************
 CRYSTALLOGRAPHIC CELL (VOLUME=        173.06329788)
         A              B              C           ALPHA      BETA       GAMMA 
     3.88680991     6.92226821     6.43225497    90.000000  90.000000  90.000000

 COORDINATES IN THE CRYSTALLOGRAPHIC CELL
     ATOM              X/A                 Y/B                 Z/C    
 *******************************************************************************
   1 T   8 O     0.000000000000E+00 -3.417874308561E-01 -4.322748147320E-01
   2 F   8 O     5.000000000000E-01 -1.582125691439E-01  6.772518526799E-02
   3 T   8 O     5.000000000000E-01 -1.704517369267E-01  4.429967134076E-01
   4 F   8 O     0.000000000000E+00 -3.295482630733E-01 -5.700328659238E-02
   5 T   1 H     5.000000000000E-01 -1.638740314360E-01  2.839135212971E-01
   6 F   1 H     0.000000000000E+00 -3.361259685640E-01 -2.160864787029E-01
   7 T   1 H     5.000000000000E-01 -3.096295786822E-02  4.965308135030E-01
   8 F   1 H     5.000000000000E-01  3.096295786822E-02 -3.469186496983E-03
   9 T   1 H     2.119549832463E-01 -2.692249806857E-01 -4.859331167379E-01
  10 F   1 H     2.880450167537E-01 -2.307750193143E-01  1.406688326214E-02
  11 F   1 H    -2.119549832463E-01 -2.692249806857E-01 -4.859331167379E-01
  12 F   1 H    -2.880450167537E-01 -2.307750193143E-01  1.406688326214E-02

 T = ATOM BELONGING TO THE ASYMMETRIC UNIT

 TOTAL ENERGY(HF)(AU)(   3) -3.0000321310727E+02     DE (AU)    2.955E-07

 SYMMETRY ALLOWED FORCES  (COORDINATE, FORCE)

    1  3.0544875E-05    2  1.5595325E-05    3  7.3650752E-05    4 -3.6508578E-05
    5 -3.0455842E-05    6  5.8352511E-05    7 -1.5164002E-06    8  8.7653258E-06
    9 -5.2831826E-05   10 -1.6802745E-05   11 -8.9285238E-07   12  1.2783574E-07
   13  1.2662605E-06

 GRADIENT NORM     0.000124  GRADIENT THRESHOLD     0.500000

 PREDICTED ENERGY CHANGE    -0.260E-07

 MAX GRADIENT      0.000074  THRESHOLD              0.000450 CONVERGED YES
 RMS GRADIENT      0.000034  THRESHOLD              0.000300 CONVERGED YES
 MAX DISPLAC.      0.001434  THRESHOLD              0.001800 CONVERGED YES
 RMS DISPLAC.      0.000467  THRESHOLD              0.001200 CONVERGED YES

 CONVERGENCE TESTS SATISFIED AFTER  17 ENERGY AND GRADIENT CALCULATIONS

 ******************************************************************
 * OPT END - CONVERGED * E(AU):  -3.000032131073E+02  POINTS   17 *
 ******************************************************************

 WARNING **** iordo **** not allocated - eigenvalues printing removed
 WARNING **** iordo **** not allocated - eigenvector printing removed
 EIGENVECTORS IN FORTRAN UNIT  8

 NEIGHBORS OF THE NON-EQUIVALENT ATOMS

 N = NUMBER OF NEIGHBORS AT DISTANCE R
    ATOM  N     R/ANG      R/AU   NEIGHBORS (ATOM LABELS AND CELL INDICES)
   1 O    2     1.0248     1.9365   9 H    0 0 0  11 H    0 0 0
   1 O    1     1.3873     2.6216   7 H    0-1-1
   1 O    1     1.3911     2.6289   6 H    0 0 0
   1 O    1     2.4124     4.5588   3 O    0-1-1
   1 O    2     2.4140     4.5617   3 O    0 0-1   3 O    1-1-1
   1 O    1     2.4153     4.5643   4 O    0 0 0

   3 O    1     1.0243     1.9356   5 H    0 0 0
   3 O    1     1.0251     1.9372   7 H    0 0 0
   3 O    2     1.3892     2.6252   9 H   -1 1 1  11 H    0 0 1
   3 O    1     2.4124     4.5588   1 O    0 1 1
   3 O    2     2.4140     4.5617   1 O    0 0 1   1 O   -1 1 1
   3 O    1     2.4153     4.5643   2 O    0 0 0

   5 H    1     1.0243     1.9356   3 O    0 0 0
   5 H    1     1.3911     2.6289   2 O    0 0 0
   5 H    1     1.6483     3.1148   7 H    0 0 0
   5 H    2     1.9763     3.7347  10 H   -1 1 0  12 H    0 0 0
   5 H    2     1.9942     3.7685   9 H   -1 1 1  11 H    0 0 1
   5 H    1     2.2882     4.3242   8 H    0 0 0

   7 H    1     1.0251     1.9372   3 O    0 0 0
   7 H    1     1.3873     2.6216   1 O    0 1 1
   7 H    1     1.6483     3.1148   5 H    0 0 0
   7 H    2     1.9935     3.7672   9 H    0 1 1  11 H    0 1 1
   7 H    2     1.9966     3.7730   9 H   -1 1 1  11 H    0 0 1
   7 H    1     2.2882     4.3242   6 H    0 1 1

   9 H    1     1.0248     1.9365   1 O    0 0 0
   9 H    1     1.3892     2.6252   3 O    1-1-1
   9 H    1     1.6477     3.1136  11 H    0 0 0
   9 H    1     1.9763     3.7347   6 H    0 0 0
   9 H    1     1.9935     3.7672   7 H    0-1-1
   9 H    1     1.9942     3.7685   5 H    1-1-1


 FINAL OPTIMIZED GEOMETRY - DIMENSIONALITY OF THE SYSTEM      3
 (NON PERIODIC DIRECTION: LATTICE PARAMETER FORMALLY SET TO 500)
 *******************************************************************************
 LATTICE PARAMETERS (ANGSTROMS AND DEGREES) - BOHR = 0.5291772083 ANGSTROM
 PRIMITIVE CELL - CENTRING CODE 4/0 VOLUME=    86.531649 - DENSITY  1.382 g/cm^3
         A              B              C           ALPHA      BETA       GAMMA 
     3.96941710     3.96941710     6.43225497    90.000000  90.000000  58.627871
 *******************************************************************************
 ATOMS IN THE ASYMMETRIC UNIT    5 - ATOMS IN THE UNIT CELL:   12
     ATOM              X/A                 Y/B                 Z/C    
 *******************************************************************************
   1 T   8 O    -3.417874308561E-01 -3.417874308561E-01 -4.322748147320E-01
   2 F   8 O     3.417874308561E-01  3.417874308561E-01  6.772518526799E-02
   3 T   8 O     3.295482630733E-01  3.295482630733E-01  4.429967134076E-01
   4 F   8 O    -3.295482630733E-01 -3.295482630733E-01 -5.700328659238E-02
   5 T   1 H     3.361259685640E-01  3.361259685640E-01  2.839135212971E-01
   6 F   1 H    -3.361259685640E-01 -3.361259685640E-01 -2.160864787029E-01
   7 T   1 H     4.690370421318E-01  4.690370421318E-01  4.965308135030E-01
   8 F   1 H    -4.690370421318E-01 -4.690370421318E-01 -3.469186496983E-03
   9 T   1 H    -5.726999743945E-02 -4.811799639320E-01 -4.859331167379E-01
  10 F   1 H     5.726999743945E-02  4.811799639320E-01  1.406688326214E-02
  11 F   1 H    -4.811799639320E-01 -5.726999743945E-02 -4.859331167379E-01
  12 F   1 H     4.811799639320E-01  5.726999743945E-02  1.406688326214E-02

 TRANSFORMATION MATRIX PRIMITIVE-CRYSTALLOGRAPHIC CELL
  1.0000  1.0000  0.0000 -1.0000  1.0000  0.0000  0.0000  0.0000  1.0000

 *******************************************************************************
 CRYSTALLOGRAPHIC CELL (VOLUME=        173.06329788)
         A              B              C           ALPHA      BETA       GAMMA 
     3.88680991     6.92226821     6.43225497    90.000000  90.000000  90.000000

 COORDINATES IN THE CRYSTALLOGRAPHIC CELL
     ATOM              X/A                 Y/B                 Z/C    
 *******************************************************************************
   1 T   8 O     0.000000000000E+00 -3.417874308561E-01 -4.322748147320E-01
   2 F   8 O     5.000000000000E-01 -1.582125691439E-01  6.772518526799E-02
   3 T   8 O     5.000000000000E-01 -1.704517369267E-01  4.429967134076E-01
   4 F   8 O     0.000000000000E+00 -3.295482630733E-01 -5.700328659238E-02
   5 T   1 H     5.000000000000E-01 -1.638740314360E-01  2.839135212971E-01
   6 F   1 H     0.000000000000E+00 -3.361259685640E-01 -2.160864787029E-01
   7 T   1 H     5.000000000000E-01 -3.096295786822E-02  4.965308135030E-01
   8 F   1 H     5.000000000000E-01  3.096295786822E-02 -3.469186496983E-03
   9 T   1 H     2.119549832463E-01 -2.692249806857E-01 -4.859331167379E-01
  10 F   1 H     2.880450167537E-01 -2.307750193143E-01  1.406688326214E-02
  11 F   1 H    -2.119549832463E-01 -2.692249806857E-01 -4.859331167379E-01
  12 F   1 H    -2.880450167537E-01 -2.307750193143E-01  1.406688326214E-02

 T = ATOM BELONGING TO THE ASYMMETRIC UNIT
 INFORMATION **** fort.34 **** GEOMETRY OUTPUT FILE

 DIRECT LATTICE VECTORS CARTESIAN COMPONENTS (ANGSTROM)
          X                    Y                    Z
   0.194340495699E+01   0.346113410287E+01   0.000000000000E+00
  -0.194340495699E+01   0.346113410287E+01   0.000000000000E+00
   0.000000000000E+00   0.000000000000E+00   0.643225497238E+01


 CARTESIAN COORDINATES - PRIMITIVE CELL
 *******************************************************************************
 *      ATOM          X(ANGSTROM)         Y(ANGSTROM)         Z(ANGSTROM)
 *******************************************************************************
   1     8 O     0.000000000000E+00 -2.365944265734E+00 -2.780501826497E+00
   2     8 O    -1.943404956988E+00 -1.095189837132E+00  4.356256596957E-01
   3     8 O    -1.943404956988E+00 -1.179912639140E+00  2.849467812566E+00
   4     8 O     0.000000000000E+00 -2.281221463726E+00 -3.666596736261E-01
   5     1 H    -1.943404956988E+00 -1.134379997554E+00  1.826204159091E+00
   6     1 H     0.000000000000E+00 -2.326754105311E+00 -1.389923327102E+00
   7     1 H    -1.943404956988E+00 -2.143338988066E-01  3.193812794097E+00
   8     1 H    -1.943404956988E+00  2.143338988066E-01 -2.231469209535E-02
   9     1 H     8.238287301982E-01 -1.863647523989E+00 -3.125645706383E+00
  10     1 H     1.119576226790E+00 -1.597486578876E+00  9.048177980883E-02
  11     1 H    -8.238287301982E-01 -1.863647523989E+00 -3.125645706383E+00
  12     1 H    -1.119576226790E+00 -1.597486578876E+00  9.048177980883E-02

 ****   4 SYMMOPS - TRANSLATORS IN FRACTIONARY UNITS
  V INV                   ROTATION MATRICES                       TRANSLATOR
  1  1  1.00  0.00  0.00  0.00  1.00  0.00  0.00  0.00  1.00    0.00  0.00  0.00
  2  2 -1.00  0.00  0.00  0.00 -1.00  0.00  0.00  0.00  1.00    0.00  0.00  0.50
  3  3  0.00  1.00  0.00  1.00  0.00  0.00  0.00  0.00  1.00    0.00  0.00  0.00
  4  4  0.00 -1.00  0.00 -1.00  0.00  0.00  0.00  0.00  1.00    0.00  0.00  0.50
 TTTTTTTTTTTTTTTTTTTTTTTTTTTTTT END         TELAPSE      250.40 TCPU      247.40
 EEEEEEEEEE TERMINATION  DATE 23 02 2010 TIME 10:10:14.0
