Test01 - CH4 Methane molecule
MOLECULE
44
2
6 0. 0. 0.
1 0.629 0.629 0.629
OPTGEOM
END
END
6  2
1 0 3  2.  0.
1 1 3  4.  0.
1 1
1 0 3 1. 0.
99 0
END
SCFDIR
DFT
B3LYP
END
FMIXING  
80
END
         
 *******************************************************************************
 *                                                                             *
 *                                CRYSTAL06                                    *
 *                          develop 1.0 - cvs090524                            *
 *                          Sequential executable                              *
 *                                                                             *
 *            Compiled:  20 Jan 2010 10:29                                     *
 *            Xmake: Linux-ifort_pentium4                                      *
 *                                                                             *
 *                                                                             *
 *                              MAIN AUTHORS                                   *
 *                                                                             *
 *    R. DOVESI(1,10), V.R. SAUNDERS(2), C. ROETTI(1,10), R. ORLANDO (1,3),    *
 *  C.M. ZICOVICH-WILSON(1,4), F. PASCALE(5), B. CIVALLERI(1,10), K. DOLL(6),  *
 *       N.M. HARRISON(2,7), I. J. BUSH(2), Ph. D'ARCO(8), M. LLUNELL(9)       *
 *                                                                             *
 * (1) THEORETICAL CHEMISTRY GROUP - UNIVERSITA' DI TORINO - TORINO (ITALY)    *
 *      http://www.crystal.unito.it                                            *
 * (2) COMPUTATIONAL SCIENCE & ENGINEERING DEPARTMENT - CCLRC DARESBURY (UK)   *
 *     http://www.cse.clrc.ac.uk/cmg/CRYSTAL/                                  *
 * (3) UNIVERSITA' DEL PIEMONTE ORIENTALE - ALESSANDRIA (ITALY)                *
 * (4) UNIVERSIDAD AUTONOMA DEL ESTADO DE MORELOS - CUERNAVACA (MEXICO)        *
 * (5) UNIVERSITE' HENRI POINCARE' - NANCY (FRANCE)                            *
 * (6) MPI FUER FESTKOERPERFORSCHUNG - STUTTGART (GERMANY)                     *
 * (7) IMPERIAL COLLEGE - LONDON (UK)                                          *
 * (8) UNIVERSITE' PIERRE ET MARIE CURIE - PARIS (FRANCE)                      *
 * (9) UNIVERSIDAD DE BARCELONA - BARCELONA (SPAIN)                            *
 *(10) NIS - NANOSTRUCTURED INTERFACES AND SURFACES - TORINO (ITALY)           *
 *     http://www.crystal.unito.it                                             *
 *******************************************************************************
 EEEEEEEEEE STARTING  DATE 23 02 2010 TIME 12:28:24.5
 Test01 - CH4 Methane molecule                                                   

 MOLECULAR CALCULATION
 POINT  GROUP  N. 44                  :  -43M   OR  TD   
 CORRESPONDING SPACE GROUP            :  P -4 3 M        


 NUMBER OF IRREDUCIBLE ATOMS IN THE CONVENTIONAL CELL:    2

 INPUT COORDINATES

 ATOM AT. N.              COORDINATES
   1   6     0.000000000000E+00  0.000000000000E+00  0.000000000000E+00
   2   1     6.290000000000E-01  6.290000000000E-01  6.290000000000E-01

 COORDINATES OF THE EQUIVALENT ATOMS (ANGSTROMS)

 N. ATOM EQUIV AT. N.          X                  Y                  Z

   1   1   1    6 C     0.00000000000E+00  0.00000000000E+00  0.00000000000E+00

   2   2   1    1 H     6.29000000000E-01  6.29000000000E-01  6.29000000000E-01
   3   2   2    1 H    -6.29000000000E-01 -6.29000000000E-01  6.29000000000E-01
   4   2   3    1 H     6.29000000000E-01 -6.29000000000E-01 -6.29000000000E-01
   5   2   4    1 H    -6.29000000000E-01  6.29000000000E-01 -6.29000000000E-01

 NUMBER OF SYMMETRY OPERATORS         :   24
 *******************************************************************************
 * GEOMETRY EDITING - INPUT COORDINATES ARE GIVEN IN ANGSTROM          
 *******************************************************************************

 GEOMETRY NOW FULLY CONSISTENT WITH THE GROUP
 *******************************************************************************
 ATOMIC POSITIONS OPTIMIZATION CONTROL

 MAXIMUM GRADIENT COMPONENT   0.00045 MAXIMUM DISPLACEMENT COMPONENT     0.00180
 R.M.S. OF GRADIENT COMPONENT 0.00030 R.M.S. OF DISPLACEMENT COMPONENTS  0.00120
 THRESHOLD ON ENERGY CHANGE 0.100E-06 EXTRAPOLATING POLYNOMIAL ORDER           2
 MAXIMUM ALLOWED NUMBER OF STEPS  100 SORTING OF ENERGY POINTS:               NO
 ANALYTICAL  GRADIENT                 HESSIAN UPDATING                      BFGS
 STEP SIZE NUMERICAL GRADIENT 0.00100
 INITIAL HESSIAN MATRIX: SCHLEGEL MODEL 2
 *******************************************************************************


 GEOMETRY FOR WAVE FUNCTION - DIMENSIONALITY OF THE SYSTEM    0
 (NON PERIODIC DIRECTION: LATTICE PARAMETER FORMALLY SET TO 500)
 *******************************************************************************
 ATOMS IN THE ASYMMETRIC UNIT    2 - ATOMS IN THE UNIT CELL:    5
     ATOM          X(ANGSTROM)         Y(ANGSTROM)         Z(ANGSTROM)
 *******************************************************************************
   1 T   6 C     0.000000000000E+00  0.000000000000E+00  0.000000000000E+00
   2 T   1 H     6.290000000000E-01  6.290000000000E-01  6.290000000000E-01
   3 F   1 H    -6.290000000000E-01 -6.290000000000E-01  6.290000000000E-01
   4 F   1 H     6.290000000000E-01 -6.290000000000E-01 -6.290000000000E-01
   5 F   1 H    -6.290000000000E-01  6.290000000000E-01 -6.290000000000E-01

 T = ATOM BELONGING TO THE ASYMMETRIC UNIT

 ****  24 SYMMOPS - TRANSLATORS IN FRACTIONARY UNITS
  V INV                   ROTATION MATRICES                       TRANSLATOR
  1  1  1.00  0.00  0.00  0.00  1.00  0.00  0.00  0.00  1.00    0.00  0.00  0.00
  2  2 -1.00  0.00  0.00  0.00 -1.00  0.00  0.00  0.00  1.00    0.00  0.00  0.00
  3  3  1.00  0.00  0.00  0.00 -1.00  0.00  0.00  0.00 -1.00    0.00  0.00  0.00
  4  4 -1.00  0.00  0.00  0.00  1.00  0.00  0.00  0.00 -1.00    0.00  0.00  0.00
  5  6  0.00  0.00  1.00  1.00  0.00  0.00  0.00  1.00  0.00    0.00  0.00  0.00
  6  5  0.00  1.00  0.00  0.00  0.00  1.00  1.00  0.00  0.00    0.00  0.00  0.00
  7  8  0.00  0.00 -1.00 -1.00  0.00  0.00  0.00  1.00  0.00    0.00  0.00  0.00
  8  7  0.00 -1.00  0.00  0.00  0.00  1.00 -1.00  0.00  0.00    0.00  0.00  0.00
  9 10  0.00  0.00  1.00 -1.00  0.00  0.00  0.00 -1.00  0.00    0.00  0.00  0.00
 10  9  0.00 -1.00  0.00  0.00  0.00 -1.00  1.00  0.00  0.00    0.00  0.00  0.00
 11 12  0.00  0.00 -1.00  1.00  0.00  0.00  0.00 -1.00  0.00    0.00  0.00  0.00
 12 11  0.00  1.00  0.00  0.00  0.00 -1.00 -1.00  0.00  0.00    0.00  0.00  0.00
 13 13  0.00  1.00  0.00  1.00  0.00  0.00  0.00  0.00  1.00    0.00  0.00  0.00
 14 14  0.00 -1.00  0.00 -1.00  0.00  0.00  0.00  0.00  1.00    0.00  0.00  0.00
 15 16  0.00 -1.00  0.00  1.00  0.00  0.00  0.00  0.00 -1.00    0.00  0.00  0.00
 16 15  0.00  1.00  0.00 -1.00  0.00  0.00  0.00  0.00 -1.00    0.00  0.00  0.00
 17 17  1.00  0.00  0.00  0.00  0.00  1.00  0.00  1.00  0.00    0.00  0.00  0.00
 18 18  0.00  0.00  1.00  0.00  1.00  0.00  1.00  0.00  0.00    0.00  0.00  0.00
 19 21 -1.00  0.00  0.00  0.00  0.00 -1.00  0.00  1.00  0.00    0.00  0.00  0.00
 20 22  0.00  0.00  1.00  0.00 -1.00  0.00 -1.00  0.00  0.00    0.00  0.00  0.00
 21 19 -1.00  0.00  0.00  0.00  0.00  1.00  0.00 -1.00  0.00    0.00  0.00  0.00
 22 20  0.00  0.00 -1.00  0.00 -1.00  0.00  1.00  0.00  0.00    0.00  0.00  0.00
 23 23  1.00  0.00  0.00  0.00  0.00 -1.00  0.00 -1.00  0.00    0.00  0.00  0.00
 24 24  0.00  0.00 -1.00  0.00  1.00  0.00 -1.00  0.00  0.00    0.00  0.00  0.00

 *******************************************************************************
 LOCAL ATOMIC FUNCTIONS BASIS SET
 *******************************************************************************
   ATOM  X(AU)  Y(AU)  Z(AU)    NO. TYPE  EXPONENT  S COEF   P COEF   D/F/G COEF
 *******************************************************************************
   1 C   0.000  0.000  0.000
                                  1 S  
                                         7.162E+01 1.543E-01 0.000E+00 0.000E+00
                                         1.305E+01 5.353E-01 0.000E+00 0.000E+00
                                         3.531E+00 4.446E-01 0.000E+00 0.000E+00
                             2-   5 SP 
                                         2.941E+00-9.997E-02 1.559E-01 0.000E+00
                                         6.835E-01 3.995E-01 6.077E-01 0.000E+00
                                         2.223E-01 7.001E-01 3.920E-01 0.000E+00
   2 H   1.189  1.189  1.189
                                  6 S  
                                         3.425E+00 1.543E-01 0.000E+00 0.000E+00
                                         6.239E-01 5.353E-01 0.000E+00 0.000E+00
                                         1.689E-01 4.446E-01 0.000E+00 0.000E+00
   3 H  -1.189 -1.189  1.189
   4 H   1.189 -1.189 -1.189
   5 H  -1.189  1.189 -1.189
 INFORMATION **** READM2 **** FULL DIRECT SCF (MONO AND BIEL INT) SELECTED
 *******************************************************************************
 N. OF ATOMS PER CELL        5  COULOMB OVERLAP TOL         (T1) 10** -6
 NUMBER OF SHELLS            6  COULOMB PENETRATION TOL     (T2) 10** -6
 NUMBER OF AO                9  EXCHANGE OVERLAP TOL        (T3) 10** -6
 N. OF ELECTRONS PER CELL   10  EXCHANGE PSEUDO OVP (F(G))  (T4) 10** -6
 CORE ELECTRONS PER CELL     2  EXCHANGE PSEUDO OVP (P(G))  (T5) 10**-12
 N. OF SYMMETRY OPERATORS   24  POLE ORDER IN MONO ZONE                4
 *******************************************************************************
 TYPE OF CALCULATION :  RESTRICTED CLOSED SHELL
 KOHN-SHAM HAMILTONIAN

 (EXCHANGE)[CORRELATION] FUNCTIONAL:(BECKE)[LEE-YANG-PARR]

 NON-LOCAL WEIGHTING FACTOR (EXCHANGE) =           0.9000
 NON-LOCAL WEIGHTING FACTOR [CORRELATION] =        0.8100

 HYBRID EXCHANGE - PERCENTAGE OF FOCK EXCHANGE    20.0000

 CAPPA:IS1  1;IS2  1;IS3  1; K PTS MONK NET    1; SYMMOPS: K SPACE 48;G SPACE 24

 *******************************************************************************
 MAX NUMBER OF SCF CYCLES      50  CONVERGENCE ON DELTAP        10**-16
 WEIGHT OF F(I) IN F(I+1)      80% CONVERGENCE ON ENERGY        10**- 7

 DISK SPACE FOR EIGENVECTORS (FTN 10)         81 REALS

 SYMMETRY ADAPTION OF THE BLOCH FUNCTIONS ENABLED

 DIMENSIONS  P(G)=      81 F(G)=      45 P(G),F(G) (IRR)      28
 MAX G-VECTOR INDEX FOR 1- AND 2-ELECTRON INTEGRALS   1

 TTTTTTTTTTTTTTTTTTTTTTTTTTTTTT INPUT       TELAPSE        0.01 TCPU        0.00

 NEIGHBORS OF THE NON-EQUIVALENT ATOMS

 N = NUMBER OF NEIGHBORS AT DISTANCE R
    ATOM  N     R/ANG      R/AU   NEIGHBORS (ATOM LABELS AND CELL INDICES)
   1 C    4     1.0895     2.0588   2 H    0 0 0   3 H    0 0 0   4 H    0 0 0
                                    5 H    0 0 0

   2 H    1     1.0895     2.0588   1 C    0 0 0
   2 H    3     1.7791     3.3620   3 H    0 0 0   4 H    0 0 0   5 H    0 0 0


 SYMMETRY ALLOWED INTERNAL DEGREE(S) OF FREEDOM:   1
 TTTTTTTTTTTTTTTTTTTTTTTTTTTTTT SYMM        TELAPSE        0.01 TCPU        0.01
 TTTTTTTTTTTTTTTTTTTTTTTTTTTTTT INT_SCREEN  TELAPSE        0.01 TCPU        0.01
 *******************************************************************************
 COORDINATE OPTIMIZATION - POINT    1
 INFORMATION **** EXCBUF **** EXCH. BIPO BUFFER: WORDS USED =        1215

 DFT PARAMETERS

     ATOM       ELECTRONS   NET CHARGE   R(ANGSTROM)
   1   6  C       6.0000      0.0000     0.77000000
   2   1  H       1.0000      0.0000     1.11000000

 SIZE OF GRID=       1979
 TTTTTTTTTTTTTTTTTTTTTTTTTTTTTT MAKEGRID    TELAPSE        0.03 TCPU        0.02
 BECKE WEIGHT FUNCTION
 RADSAFE =     2.00
 TOLERANCES - DENSITY:10**- 6; POTENTIAL:10**- 9; GRID WGT:10**-14

 RADIAL INTEGRATION  - INTERVALS (POINTS,UPPER LIMIT):            1( 55,  4.0*R)

 ANGULAR INTEGRATION - INTERVALS (ACCURACY LEVEL [N. POINTS] UPPER LIMIT):
  1(  1[  38]   0.4)  2(  2[  50]   0.6)  3(  5[ 110]   0.8)  4(  8[ 194]   0.9)
  5( 11[ 302]   1.1)  6( 13[ 434]   2.3)  7( 11[ 302]   2.4)  8(  8[ 194]   2.6)
  9(  5[ 110]   2.8) 10(  1[  38]9999.0)
 TTTTTTTTTTTTTTTTTTTTTTTTTTTTTT INT_CALC    TELAPSE        0.03 TCPU        0.02

 *******************************************************************************
 Test01 - CH4 Methane molecule                                                   
 CRYSTAL - SCF - TYPE OF CALCULATION :  RESTRICTED CLOSED SHELL
 *******************************************************************************

 CAPPA:IS1  1;IS2  1;IS3  1; K PTS MONK NET    1; SYMMOPS: K SPACE 48;G SPACE 24

 TTTTTTTTTTTTTTTTTTTTTTTTTTTTTT SDIK        TELAPSE        0.03 TCPU        0.02

 AAAAAAAAAAAAAAAAAAAAAAAAAAAAAAAAAAAAAAAAAAAAAAAAAAAAAAAAAAAAAAAAAAAAAAAAAAAAAAA
         ATOMIC WAVEFUNCTION(S)


 NUCLEAR CHARGE  6.0  SYMMETRY SPECIES            S    P
 N. ELECTRONS    6.0  NUMBER OF PRIMITIVE GTOS    6    3
                      NUMBER OF CONTRACTED GTOS   2    1
                      NUMBER OF CLOSED SHELLS     2    0
                      OPEN SHELL OCCUPATION       0    2

  ZNUC SCFIT  TOTAL HF ENERGY   KINETIC ENERGY   VIRIAL THEOREM ACCURACY
   6.0   1   -3.719839255E+01  3.792455700E+01 -1.980852394E+00  0.0E+00

 NUCLEAR CHARGE  1.0  SYMMETRY SPECIES            S
 N. ELECTRONS    1.0  NUMBER OF PRIMITIVE GTOS    3
                      NUMBER OF CONTRACTED GTOS   1
                      NUMBER OF CLOSED SHELLS     0
                      OPEN SHELL OCCUPATION       1

  ZNUC SCFIT  TOTAL HF ENERGY   KINETIC ENERGY   VIRIAL THEOREM ACCURACY
   1.0   1   -4.665818504E-01  7.600318799E-01 -1.613897736E+00  0.0E+00

 AAAAAAAAAAAAAAAAAAAAAAAAAAAAAAAAAAAAAAAAAAAAAAAAAAAAAAAAAAAAAAAAAAAAAAAAAAAAAAA

 CHARGE NORMALIZATION FACTOR   1.00000000
 TOTAL ATOMIC CHARGES:
   6.0000000   1.0000000   1.0000000   1.0000000   1.0000000
 TTTTTTTTTTTTTTTTTTTTTTTTTTTTTT MOQGAD      TELAPSE        0.03 TCPU        0.02
 TTTTTTTTTTTTTTTTTTTTTTTTTTTTTT SHELLX      TELAPSE        0.03 TCPU        0.02
 TTTTTTTTTTTTTTTTTTTTTTTTTTTTTT MONMO3      TELAPSE        0.03 TCPU        0.02
 NUMERICALLY INTEGRATED DENSITY     10.0007141608
 TTTTTTTTTTTTTTTTTTTTTTTTTTTTTT NUMDFT      TELAPSE        0.04 TCPU        0.02
 CYC   0 ETOT(AU) -3.955624712231E+01 DETOT -3.96E+01 tst  0.00E+00 PX  1.00E+00
 TTTTTTTTTTTTTTTTTTTTTTTTTTTTTT FDIK        TELAPSE        0.04 TCPU        0.02
 INSULATING STATE
 TOP OF VALENCE BANDS -    BAND      5; K    1; EIG -3.4369496E-01 AU
 BOTTOM OF VIRTUAL BANDS - BAND      6; K    1; EIG  4.3932133E-01 AU
 TTTTTTTTTTTTTTTTTTTTTTTTTTTTTT PDIG        TELAPSE        0.04 TCPU        0.02
 CHARGE NORMALIZATION FACTOR   1.00000000
 TOTAL ATOMIC CHARGES:
   6.3503949   0.9124013   0.9124013   0.9124013   0.9124013
 TTTTTTTTTTTTTTTTTTTTTTTTTTTTTT MOQGAD      TELAPSE        0.04 TCPU        0.03
 TTTTTTTTTTTTTTTTTTTTTTTTTTTTTT SHELLX      TELAPSE        0.04 TCPU        0.03
 TTTTTTTTTTTTTTTTTTTTTTTTTTTTTT MONMO3      TELAPSE        0.04 TCPU        0.03
 NUMERICALLY INTEGRATED DENSITY     10.0008116455
 TTTTTTTTTTTTTTTTTTTTTTTTTTTTTT NUMDFT      TELAPSE        0.07 TCPU        0.04
 CYC   1 ETOT(AU) -4.000290456022E+01 DETOT -4.47E-01 tst  0.00E+00 PX  1.00E+00
 TTTTTTTTTTTTTTTTTTTTTTTTTTTTTT FDIK        TELAPSE        0.07 TCPU        0.04
 INSULATING STATE
 TOP OF VALENCE BANDS -    BAND      5; K    1; EIG -3.4620127E-01 AU
 BOTTOM OF VIRTUAL BANDS - BAND      6; K    1; EIG  4.4491998E-01 AU
 TTTTTTTTTTTTTTTTTTTTTTTTTTTTTT PDIG        TELAPSE        0.07 TCPU        0.04
 CHARGE NORMALIZATION FACTOR   1.00000000
 TOTAL ATOMIC CHARGES:
   6.3407032   0.9148242   0.9148242   0.9148242   0.9148242
 TTTTTTTTTTTTTTTTTTTTTTTTTTTTTT MOQGAD      TELAPSE        0.07 TCPU        0.04
 TTTTTTTTTTTTTTTTTTTTTTTTTTTTTT SHELLX      TELAPSE        0.08 TCPU        0.04
 TTTTTTTTTTTTTTTTTTTTTTTTTTTTTT MONMO3      TELAPSE        0.08 TCPU        0.04
 NUMERICALLY INTEGRATED DENSITY     10.0008115678
 TTTTTTTTTTTTTTTTTTTTTTTTTTTTTT NUMDFT      TELAPSE        0.08 TCPU        0.04
 CYC   2 ETOT(AU) -4.000304908861E+01 DETOT -1.45E-04 tst  7.88E-06 PX  1.09E-02
 TTTTTTTTTTTTTTTTTTTTTTTTTTTTTT FDIK        TELAPSE        0.08 TCPU        0.04
 INSULATING STATE
 TOP OF VALENCE BANDS -    BAND      5; K    1; EIG -3.4837127E-01 AU
 BOTTOM OF VIRTUAL BANDS - BAND      6; K    1; EIG  4.4921567E-01 AU
 TTTTTTTTTTTTTTTTTTTTTTTTTTTTTT PDIG        TELAPSE        0.08 TCPU        0.04
 CHARGE NORMALIZATION FACTOR   1.00000000
 TOTAL ATOMIC CHARGES:
   6.3342146   0.9164463   0.9164463   0.9164463   0.9164463
 TTTTTTTTTTTTTTTTTTTTTTTTTTTTTT MOQGAD      TELAPSE        0.08 TCPU        0.04
 TTTTTTTTTTTTTTTTTTTTTTTTTTTTTT SHELLX      TELAPSE        0.08 TCPU        0.05
 TTTTTTTTTTTTTTTTTTTTTTTTTTTTTT MONMO3      TELAPSE        0.08 TCPU        0.05
 NUMERICALLY INTEGRATED DENSITY     10.0008117006
 TTTTTTTTTTTTTTTTTTTTTTTTTTTTTT NUMDFT      TELAPSE        0.09 TCPU        0.05
 CYC   3 ETOT(AU) -4.000313720546E+01 DETOT -8.81E-05 tst  4.78E-06 PX  8.47E-03
 TTTTTTTTTTTTTTTTTTTTTTTTTTTTTT FDIK        TELAPSE        0.09 TCPU        0.05
 INSULATING STATE
 TOP OF VALENCE BANDS -    BAND      5; K    1; EIG -3.5021412E-01 AU
 BOTTOM OF VIRTUAL BANDS - BAND      6; K    1; EIG  4.5253422E-01 AU
 TTTTTTTTTTTTTTTTTTTTTTTTTTTTTT PDIG        TELAPSE        0.09 TCPU        0.05
 CHARGE NORMALIZATION FACTOR   1.00000000
 TOTAL ATOMIC CHARGES:
   6.3298125   0.9175469   0.9175469   0.9175469   0.9175469
 TTTTTTTTTTTTTTTTTTTTTTTTTTTTTT MOQGAD      TELAPSE        0.09 TCPU        0.06
 TTTTTTTTTTTTTTTTTTTTTTTTTTTTTT SHELLX      TELAPSE        0.09 TCPU        0.06
 TTTTTTTTTTTTTTTTTTTTTTTTTTTTTT MONMO3      TELAPSE        0.09 TCPU        0.06
 NUMERICALLY INTEGRATED DENSITY     10.0008119310
 TTTTTTTTTTTTTTTTTTTTTTTTTTTTTT NUMDFT      TELAPSE        0.10 TCPU        0.06
 CYC   4 ETOT(AU) -4.000319251386E+01 DETOT -5.53E-05 tst  2.94E-06 PX  6.63E-03
 TTTTTTTTTTTTTTTTTTTTTTTTTTTTTT FDIK        TELAPSE        0.10 TCPU        0.06
 INSULATING STATE
 TOP OF VALENCE BANDS -    BAND      5; K    1; EIG -3.5175822E-01 AU
 BOTTOM OF VIRTUAL BANDS - BAND      6; K    1; EIG  4.5511256E-01 AU
 TTTTTTTTTTTTTTTTTTTTTTTTTTTTTT PDIG        TELAPSE        0.10 TCPU        0.06
 CHARGE NORMALIZATION FACTOR   1.00000000
 TOTAL ATOMIC CHARGES:
   6.3267854   0.9183037   0.9183037   0.9183037   0.9183037
 TTTTTTTTTTTTTTTTTTTTTTTTTTTTTT MOQGAD      TELAPSE        0.10 TCPU        0.06
 TTTTTTTTTTTTTTTTTTTTTTTTTTTTTT SHELLX      TELAPSE        0.10 TCPU        0.07
 TTTTTTTTTTTTTTTTTTTTTTTTTTTTTT MONMO3      TELAPSE        0.10 TCPU        0.07
 NUMERICALLY INTEGRATED DENSITY     10.0008121955
 TTTTTTTTTTTTTTTTTTTTTTTTTTTTTT NUMDFT      TELAPSE        0.11 TCPU        0.07
 CYC   5 ETOT(AU) -4.000322791339E+01 DETOT -3.54E-05 tst  1.84E-06 PX  5.23E-03
 TTTTTTTTTTTTTTTTTTTTTTTTTTTTTT FDIK        TELAPSE        0.11 TCPU        0.07
 INSULATING STATE
 TOP OF VALENCE BANDS -    BAND      5; K    1; EIG -3.5303950E-01 AU
 BOTTOM OF VIRTUAL BANDS - BAND      6; K    1; EIG  4.5712530E-01 AU
 TTTTTTTTTTTTTTTTTTTTTTTTTTTTTT PDIG        TELAPSE        0.11 TCPU        0.07
 CHARGE NORMALIZATION FACTOR   1.00000000
 TOTAL ATOMIC CHARGES:
   6.3246756   0.9188311   0.9188311   0.9188311   0.9188311
 TTTTTTTTTTTTTTTTTTTTTTTTTTTTTT MOQGAD      TELAPSE        0.11 TCPU        0.07
 TTTTTTTTTTTTTTTTTTTTTTTTTTTTTT SHELLX      TELAPSE        0.11 TCPU        0.08
 TTTTTTTTTTTTTTTTTTTTTTTTTTTTTT MONMO3      TELAPSE        0.11 TCPU        0.08
 NUMERICALLY INTEGRATED DENSITY     10.0008124598
 TTTTTTTTTTTTTTTTTTTTTTTTTTTTTT NUMDFT      TELAPSE        0.12 TCPU        0.08
 CYC   6 ETOT(AU) -4.000325085920E+01 DETOT -2.29E-05 tst  1.16E-06 PX  4.15E-03
 TTTTTTTTTTTTTTTTTTTTTTTTTTTTTT FDIK        TELAPSE        0.12 TCPU        0.08
 INSULATING STATE
 TOP OF VALENCE BANDS -    BAND      5; K    1; EIG -3.5409507E-01 AU
 BOTTOM OF VIRTUAL BANDS - BAND      6; K    1; EIG  4.5870270E-01 AU
 TTTTTTTTTTTTTTTTTTTTTTTTTTTTTT PDIG        TELAPSE        0.12 TCPU        0.08
 CHARGE NORMALIZATION FACTOR   1.00000000
 TOTAL ATOMIC CHARGES:
   6.3231850   0.9192038   0.9192038   0.9192038   0.9192038
 TTTTTTTTTTTTTTTTTTTTTTTTTTTTTT MOQGAD      TELAPSE        0.12 TCPU        0.08
 TTTTTTTTTTTTTTTTTTTTTTTTTTTTTT SHELLX      TELAPSE        0.12 TCPU        0.08
 TTTTTTTTTTTTTTTTTTTTTTTTTTTTTT MONMO3      TELAPSE        0.12 TCPU        0.08
 NUMERICALLY INTEGRATED DENSITY     10.0008127062
 TTTTTTTTTTTTTTTTTTTTTTTTTTTTTT NUMDFT      TELAPSE        0.12 TCPU        0.09
 CYC   7 ETOT(AU) -4.000326585354E+01 DETOT -1.50E-05 tst  7.40E-07 PX  3.31E-03
 TTTTTTTTTTTTTTTTTTTTTTTTTTTTTT FDIK        TELAPSE        0.12 TCPU        0.09
 INSULATING STATE
 TOP OF VALENCE BANDS -    BAND      5; K    1; EIG -3.5495997E-01 AU
 BOTTOM OF VIRTUAL BANDS - BAND      6; K    1; EIG  4.5994295E-01 AU
 TTTTTTTTTTTTTTTTTTTTTTTTTTTTTT PDIG        TELAPSE        0.12 TCPU        0.09
 CHARGE NORMALIZATION FACTOR   1.00000000
 TOTAL ATOMIC CHARGES:
   6.3221174   0.9194707   0.9194707   0.9194707   0.9194707
 TTTTTTTTTTTTTTTTTTTTTTTTTTTTTT MOQGAD      TELAPSE        0.12 TCPU        0.09
 TTTTTTTTTTTTTTTTTTTTTTTTTTTTTT SHELLX      TELAPSE        0.13 TCPU        0.09
 TTTTTTTTTTTTTTTTTTTTTTTTTTTTTT MONMO3      TELAPSE        0.13 TCPU        0.09
 NUMERICALLY INTEGRATED DENSITY     10.0008129269
 TTTTTTTTTTTTTTTTTTTTTTTTTTTTTT NUMDFT      TELAPSE        0.13 TCPU        0.10
 CYC   8 ETOT(AU) -4.000327570234E+01 DETOT -9.85E-06 tst  4.75E-07 PX  2.65E-03
 TTTTTTTTTTTTTTTTTTTTTTTTTTTTTT FDIK        TELAPSE        0.13 TCPU        0.10
 INSULATING STATE
 TOP OF VALENCE BANDS -    BAND      5; K    1; EIG -3.5566570E-01 AU
 BOTTOM OF VIRTUAL BANDS - BAND      6; K    1; EIG  4.6092072E-01 AU
 TTTTTTTTTTTTTTTTTTTTTTTTTTTTTT PDIG        TELAPSE        0.13 TCPU        0.10
 CHARGE NORMALIZATION FACTOR   1.00000000
 TOTAL ATOMIC CHARGES:
   6.3213424   0.9196644   0.9196644   0.9196644   0.9196644
 TTTTTTTTTTTTTTTTTTTTTTTTTTTTTT MOQGAD      TELAPSE        0.13 TCPU        0.10
 TTTTTTTTTTTTTTTTTTTTTTTTTTTTTT SHELLX      TELAPSE        0.14 TCPU        0.10
 TTTTTTTTTTTTTTTTTTTTTTTTTTTTTT MONMO3      TELAPSE        0.14 TCPU        0.10
 NUMERICALLY INTEGRATED DENSITY     10.0008131196
 TTTTTTTTTTTTTTTTTTTTTTTTTTTTTT NUMDFT      TELAPSE        0.14 TCPU        0.11
 CYC   9 ETOT(AU) -4.000328219241E+01 DETOT -6.49E-06 tst  3.07E-07 PX  2.12E-03
 TTTTTTTTTTTTTTTTTTTTTTTTTTTTTT FDIK        TELAPSE        0.14 TCPU        0.11
 INSULATING STATE
 TOP OF VALENCE BANDS -    BAND      5; K    1; EIG -3.5623968E-01 AU
 BOTTOM OF VIRTUAL BANDS - BAND      6; K    1; EIG  4.6169326E-01 AU
 TTTTTTTTTTTTTTTTTTTTTTTTTTTTTT PDIG        TELAPSE        0.14 TCPU        0.11
 CHARGE NORMALIZATION FACTOR   1.00000000
 TOTAL ATOMIC CHARGES:
   6.3207724   0.9198069   0.9198069   0.9198069   0.9198069
 TTTTTTTTTTTTTTTTTTTTTTTTTTTTTT MOQGAD      TELAPSE        0.14 TCPU        0.11
 TTTTTTTTTTTTTTTTTTTTTTTTTTTTTT SHELLX      TELAPSE        0.15 TCPU        0.11
 TTTTTTTTTTTTTTTTTTTTTTTTTTTTTT MONMO3      TELAPSE        0.15 TCPU        0.11
 NUMERICALLY INTEGRATED DENSITY     10.0008132849
 TTTTTTTTTTTTTTTTTTTTTTTTTTTTTT NUMDFT      TELAPSE        0.15 TCPU        0.12
 CYC  10 ETOT(AU) -4.000328647795E+01 DETOT -4.29E-06 tst  1.99E-07 PX  1.71E-03
 TTTTTTTTTTTTTTTTTTTTTTTTTTTTTT FDIK        TELAPSE        0.15 TCPU        0.12
 INSULATING STATE
 TOP OF VALENCE BANDS -    BAND      5; K    1; EIG -3.5670535E-01 AU
 BOTTOM OF VIRTUAL BANDS - BAND      6; K    1; EIG  4.6230477E-01 AU
 TTTTTTTTTTTTTTTTTTTTTTTTTTTTTT PDIG        TELAPSE        0.15 TCPU        0.12
 CHARGE NORMALIZATION FACTOR   1.00000000
 TOTAL ATOMIC CHARGES:
   6.3203478   0.9199130   0.9199130   0.9199130   0.9199130
 TTTTTTTTTTTTTTTTTTTTTTTTTTTTTT MOQGAD      TELAPSE        0.15 TCPU        0.12
 TTTTTTTTTTTTTTTTTTTTTTTTTTTTTT SHELLX      TELAPSE        0.15 TCPU        0.12
 TTTTTTTTTTTTTTTTTTTTTTTTTTTTTT MONMO3      TELAPSE        0.15 TCPU        0.12
 NUMERICALLY INTEGRATED DENSITY     10.0008134249
 TTTTTTTTTTTTTTTTTTTTTTTTTTTTTT NUMDFT      TELAPSE        0.16 TCPU        0.12
 CYC  11 ETOT(AU) -4.000328931146E+01 DETOT -2.83E-06 tst  1.30E-07 PX  1.38E-03
 TTTTTTTTTTTTTTTTTTTTTTTTTTTTTT FDIK        TELAPSE        0.16 TCPU        0.12
 INSULATING STATE
 TOP OF VALENCE BANDS -    BAND      5; K    1; EIG -3.5708238E-01 AU
 BOTTOM OF VIRTUAL BANDS - BAND      6; K    1; EIG  4.6278951E-01 AU
 TTTTTTTTTTTTTTTTTTTTTTTTTTTTTT PDIG        TELAPSE        0.16 TCPU        0.12
 CHARGE NORMALIZATION FACTOR   1.00000000
 TOTAL ATOMIC CHARGES:
   6.3200278   0.9199930   0.9199930   0.9199930   0.9199930
 TTTTTTTTTTTTTTTTTTTTTTTTTTTTTT MOQGAD      TELAPSE        0.16 TCPU        0.12
 TTTTTTTTTTTTTTTTTTTTTTTTTTTTTT SHELLX      TELAPSE        0.16 TCPU        0.13
 TTTTTTTTTTTTTTTTTTTTTTTTTTTTTT MONMO3      TELAPSE        0.16 TCPU        0.13
 NUMERICALLY INTEGRATED DENSITY     10.0008135425
 TTTTTTTTTTTTTTTTTTTTTTTTTTTTTT NUMDFT      TELAPSE        0.17 TCPU        0.13
 CYC  12 ETOT(AU) -4.000329118644E+01 DETOT -1.87E-06 tst  8.49E-08 PX  1.12E-03
 TTTTTTTTTTTTTTTTTTTTTTTTTTTTTT FDIK        TELAPSE        0.17 TCPU        0.13
 INSULATING STATE
 TOP OF VALENCE BANDS -    BAND      5; K    1; EIG -3.5738716E-01 AU
 BOTTOM OF VIRTUAL BANDS - BAND      6; K    1; EIG  4.6317425E-01 AU
 TTTTTTTTTTTTTTTTTTTTTTTTTTTTTT PDIG        TELAPSE        0.17 TCPU        0.13
 CHARGE NORMALIZATION FACTOR   1.00000000
 TOTAL ATOMIC CHARGES:
   6.3197840   0.9200540   0.9200540   0.9200540   0.9200540
 TTTTTTTTTTTTTTTTTTTTTTTTTTTTTT MOQGAD      TELAPSE        0.17 TCPU        0.13
 TTTTTTTTTTTTTTTTTTTTTTTTTTTTTT SHELLX      TELAPSE        0.17 TCPU        0.14
 TTTTTTTTTTTTTTTTTTTTTTTTTTTTTT MONMO3      TELAPSE        0.17 TCPU        0.14
 NUMERICALLY INTEGRATED DENSITY     10.0008136406
 TTTTTTTTTTTTTTTTTTTTTTTTTTTTTT NUMDFT      TELAPSE        0.18 TCPU        0.14
 CYC  13 ETOT(AU) -4.000329242780E+01 DETOT -1.24E-06 tst  5.57E-08 PX  9.03E-04
 TTTTTTTTTTTTTTTTTTTTTTTTTTTTTT FDIK        TELAPSE        0.18 TCPU        0.14
 INSULATING STATE
 TOP OF VALENCE BANDS -    BAND      5; K    1; EIG -3.5763325E-01 AU
 BOTTOM OF VIRTUAL BANDS - BAND      6; K    1; EIG  4.6347990E-01 AU
 TTTTTTTTTTTTTTTTTTTTTTTTTTTTTT PDIG        TELAPSE        0.18 TCPU        0.14
 CHARGE NORMALIZATION FACTOR   1.00000000
 TOTAL ATOMIC CHARGES:
   6.3195964   0.9201009   0.9201009   0.9201009   0.9201009
 TTTTTTTTTTTTTTTTTTTTTTTTTTTTTT MOQGAD      TELAPSE        0.18 TCPU        0.14
 TTTTTTTTTTTTTTTTTTTTTTTTTTTTTT SHELLX      TELAPSE        0.18 TCPU        0.14
 TTTTTTTTTTTTTTTTTTTTTTTTTTTTTT MONMO3      TELAPSE        0.18 TCPU        0.14
 NUMERICALLY INTEGRATED DENSITY     10.0008137220
 TTTTTTTTTTTTTTTTTTTTTTTTTTTTTT NUMDFT      TELAPSE        0.18 TCPU        0.15
 CYC  14 ETOT(AU) -4.000329324992E+01 DETOT -8.22E-07 tst  3.66E-08 PX  7.32E-04
 TTTTTTTTTTTTTTTTTTTTTTTTTTTTTT FDIK        TELAPSE        0.19 TCPU        0.15
 INSULATING STATE
 TOP OF VALENCE BANDS -    BAND      5; K    1; EIG -3.5783173E-01 AU
 BOTTOM OF VIRTUAL BANDS - BAND      6; K    1; EIG  4.6372293E-01 AU
 TTTTTTTTTTTTTTTTTTTTTTTTTTTTTT PDIG        TELAPSE        0.19 TCPU        0.15
 CHARGE NORMALIZATION FACTOR   1.00000000
 TOTAL ATOMIC CHARGES:
   6.3194507   0.9201373   0.9201373   0.9201373   0.9201373
 TTTTTTTTTTTTTTTTTTTTTTTTTTTTTT MOQGAD      TELAPSE        0.19 TCPU        0.15
 TTTTTTTTTTTTTTTTTTTTTTTTTTTTTT SHELLX      TELAPSE        0.19 TCPU        0.16
 TTTTTTTTTTTTTTTTTTTTTTTTTTTTTT MONMO3      TELAPSE        0.19 TCPU        0.16
 NUMERICALLY INTEGRATED DENSITY     10.0008137892
 TTTTTTTTTTTTTTTTTTTTTTTTTTTTTT NUMDFT      TELAPSE        0.19 TCPU        0.16
 CYC  15 ETOT(AU) -4.000329379451E+01 DETOT -5.45E-07 tst  2.41E-08 PX  5.94E-04
 TTTTTTTTTTTTTTTTTTTTTTTTTTTTTT FDIK        TELAPSE        0.19 TCPU        0.16
 INSULATING STATE
 TOP OF VALENCE BANDS -    BAND      5; K    1; EIG -3.5799171E-01 AU
 BOTTOM OF VIRTUAL BANDS - BAND      6; K    1; EIG  4.6391629E-01 AU
 TTTTTTTTTTTTTTTTTTTTTTTTTTTTTT PDIG        TELAPSE        0.19 TCPU        0.16
 CHARGE NORMALIZATION FACTOR   1.00000000
 TOTAL ATOMIC CHARGES:
   6.3193367   0.9201658   0.9201658   0.9201658   0.9201658
 TTTTTTTTTTTTTTTTTTTTTTTTTTTTTT MOQGAD      TELAPSE        0.19 TCPU        0.16
 TTTTTTTTTTTTTTTTTTTTTTTTTTTTTT SHELLX      TELAPSE        0.20 TCPU        0.16
 TTTTTTTTTTTTTTTTTTTTTTTTTTTTTT MONMO3      TELAPSE        0.20 TCPU        0.16
 NUMERICALLY INTEGRATED DENSITY     10.0008138447
 TTTTTTTTTTTTTTTTTTTTTTTTTTTTTT NUMDFT      TELAPSE        0.20 TCPU        0.17
 CYC  16 ETOT(AU) -4.000329415530E+01 DETOT -3.61E-07 tst  1.59E-08 PX  4.82E-04
 TTTTTTTTTTTTTTTTTTTTTTTTTTTTTT FDIK        TELAPSE        0.20 TCPU        0.17
 INSULATING STATE
 TOP OF VALENCE BANDS -    BAND      5; K    1; EIG -3.5812056E-01 AU
 BOTTOM OF VIRTUAL BANDS - BAND      6; K    1; EIG  4.6407020E-01 AU
 TTTTTTTTTTTTTTTTTTTTTTTTTTTTTT PDIG        TELAPSE        0.20 TCPU        0.17
 CHARGE NORMALIZATION FACTOR   1.00000000
 TOTAL ATOMIC CHARGES:
   6.3192470   0.9201883   0.9201883   0.9201883   0.9201883
 TTTTTTTTTTTTTTTTTTTTTTTTTTTTTT MOQGAD      TELAPSE        0.20 TCPU        0.17
 TTTTTTTTTTTTTTTTTTTTTTTTTTTTTT SHELLX      TELAPSE        0.21 TCPU        0.17
 TTTTTTTTTTTTTTTTTTTTTTTTTTTTTT MONMO3      TELAPSE        0.21 TCPU        0.17
 NUMERICALLY INTEGRATED DENSITY     10.0008138903
 TTTTTTTTTTTTTTTTTTTTTTTTTTTTTT NUMDFT      TELAPSE        0.21 TCPU        0.18
 CYC  17 ETOT(AU) -4.000329439435E+01 DETOT -2.39E-07 tst  1.05E-08 PX  3.91E-04
 TTTTTTTTTTTTTTTTTTTTTTTTTTTTTT FDIK        TELAPSE        0.21 TCPU        0.18
 INSULATING STATE
 TOP OF VALENCE BANDS -    BAND      5; K    1; EIG -3.5822429E-01 AU
 BOTTOM OF VIRTUAL BANDS - BAND      6; K    1; EIG  4.6419278E-01 AU
 TTTTTTTTTTTTTTTTTTTTTTTTTTTTTT PDIG        TELAPSE        0.21 TCPU        0.18
 CHARGE NORMALIZATION FACTOR   1.00000000
 TOTAL ATOMIC CHARGES:
   6.3191759   0.9202060   0.9202060   0.9202060   0.9202060
 TTTTTTTTTTTTTTTTTTTTTTTTTTTTTT MOQGAD      TELAPSE        0.21 TCPU        0.18
 TTTTTTTTTTTTTTTTTTTTTTTTTTTTTT SHELLX      TELAPSE        0.22 TCPU        0.18
 TTTTTTTTTTTTTTTTTTTTTTTTTTTTTT MONMO3      TELAPSE        0.22 TCPU        0.18
 NUMERICALLY INTEGRATED DENSITY     10.0008139277
 TTTTTTTTTTTTTTTTTTTTTTTTTTTTTT NUMDFT      TELAPSE        0.22 TCPU        0.18
 CYC  18 ETOT(AU) -4.000329455275E+01 DETOT -1.58E-07 tst  6.92E-09 PX  3.18E-04
 TTTTTTTTTTTTTTTTTTTTTTTTTTTTTT FDIK        TELAPSE        0.22 TCPU        0.18
 INSULATING STATE
 TOP OF VALENCE BANDS -    BAND      5; K    1; EIG -3.5830777E-01 AU
 BOTTOM OF VIRTUAL BANDS - BAND      6; K    1; EIG  4.6429043E-01 AU
 TTTTTTTTTTTTTTTTTTTTTTTTTTTTTT PDIG        TELAPSE        0.22 TCPU        0.18
 CHARGE NORMALIZATION FACTOR   1.00000000
 TOTAL ATOMIC CHARGES:
   6.3191193   0.9202202   0.9202202   0.9202202   0.9202202
 TTTTTTTTTTTTTTTTTTTTTTTTTTTTTT MOQGAD      TELAPSE        0.22 TCPU        0.18
 TTTTTTTTTTTTTTTTTTTTTTTTTTTTTT SHELLX      TELAPSE        0.22 TCPU        0.19
 TTTTTTTTTTTTTTTTTTTTTTTTTTTTTT MONMO3      TELAPSE        0.22 TCPU        0.19
 NUMERICALLY INTEGRATED DENSITY     10.0008139583
 TTTTTTTTTTTTTTTTTTTTTTTTTTTTTT NUMDFT      TELAPSE        0.23 TCPU        0.19
 CYC  19 ETOT(AU) -4.000329465772E+01 DETOT -1.05E-07 tst  4.58E-09 PX  2.59E-04
 TTTTTTTTTTTTTTTTTTTTTTTTTTTTTT FDIK        TELAPSE        0.23 TCPU        0.19
 INSULATING STATE
 TOP OF VALENCE BANDS -    BAND      5; K    1; EIG -3.5837493E-01 AU
 BOTTOM OF VIRTUAL BANDS - BAND      6; K    1; EIG  4.6436823E-01 AU
 TTTTTTTTTTTTTTTTTTTTTTTTTTTTTT PDIG        TELAPSE        0.23 TCPU        0.19
 CHARGE NORMALIZATION FACTOR   1.00000000
 TOTAL ATOMIC CHARGES:
   6.3190741   0.9202315   0.9202315   0.9202315   0.9202315
 TTTTTTTTTTTTTTTTTTTTTTTTTTTTTT MOQGAD      TELAPSE        0.23 TCPU        0.20
 TTTTTTTTTTTTTTTTTTTTTTTTTTTTTT SHELLX      TELAPSE        0.23 TCPU        0.20
 TTTTTTTTTTTTTTTTTTTTTTTTTTTTTT MONMO3      TELAPSE        0.23 TCPU        0.20
 NUMERICALLY INTEGRATED DENSITY     10.0008139834
 TTTTTTTTTTTTTTTTTTTTTTTTTTTTTT NUMDFT      TELAPSE        0.24 TCPU        0.20
 CYC  20 ETOT(AU) -4.000329472727E+01 DETOT -6.96E-08 tst  3.03E-09 PX  2.10E-04
 TTTTTTTTTTTTTTTTTTTTTTTTTTTTTT FDIK        TELAPSE        0.24 TCPU        0.20
 INSULATING STATE
 TOP OF VALENCE BANDS -    BAND      5; K    1; EIG -3.5842895E-01 AU
 BOTTOM OF VIRTUAL BANDS - BAND      6; K    1; EIG  4.6443025E-01 AU
 TTTTTTTTTTTTTTTTTTTTTTTTTTTTTT PDIG        TELAPSE        0.24 TCPU        0.20
 CHARGE NORMALIZATION FACTOR   1.00000000
 TOTAL ATOMIC CHARGES:
   6.3190379   0.9202405   0.9202405   0.9202405   0.9202405
 TTTTTTTTTTTTTTTTTTTTTTTTTTTTTT MOQGAD      TELAPSE        0.24 TCPU        0.20
 TTTTTTTTTTTTTTTTTTTTTTTTTTTTTT SHELLX      TELAPSE        0.24 TCPU        0.20
 +++ ENERGIES IN A.U. +++
 ::: EXT EL-POLE                                   0.0000000000000E+00
 ::: EXT EL-SPHEROPOLE                             0.0000000000000E+00
 ::: BIELET ZONE E-E                               3.1564800179945E+01
 ::: TOTAL E-E                                     3.1564800179945E+01
 ::: TOTAL E-N + N-E                              -1.1885870146889E+02
 ::: TOTAL N-N                                     1.3442049070237E+01
 ::: KINETIC ENERGY                                3.9418592038235E+01
 ::: PSEUDO TOTAL   ENERGY                        -3.4433260180474E+01
 ::: VIRIAL COEFFICIENT                            1.0675044932251E+00
 TTTTTTTTTTTTTTTTTTTTTTTTTTTTTT MONMO3      TELAPSE        0.24 TCPU        0.21
 NUMERICALLY INTEGRATED DENSITY     10.0008140039
 TTTTTTTTTTTTTTTTTTTTTTTTTTTTTT NUMDFT      TELAPSE        0.25 TCPU        0.21
 CYC  21 ETOT(AU) -4.000329477336E+01 DETOT -4.61E-08 tst  2.00E-09 PX  2.10E-04

 == SCF ENDED - CONVERGENCE ON ENERGY      E(AU) -4.0003294773362E+01 CYCLES  21


 ENERGY EXPRESSION=HARTREE+FOCK EXCH*0.20000+(BECKE  EXCH)*0.80000+LYP    CORR


 TOTAL ENERGY(DFT)(AU)( 21) -4.0003294773362E+01 DE-4.6E-08 tester 2.0E-09
 TTTTTTTTTTTTTTTTTTTTTTTTTTTTTT EDFT        TELAPSE        0.25 TCPU        0.21

 *******************************************************************************
 *                             FORCE CALCULATION                               *
 *******************************************************************************

 TTTTTTTTTTTTTTTTTTTTTTTTTTTTTT NUMDFG      TELAPSE        0.26 TCPU        0.23
 INFORMATION **** EXCPOG **** EXCH. BIPO BUFFER LENGTH (WORDS) =        4860
 INFORMATION **** GENPOG **** BIPO BUFFER LENGTH (WORDS) =        2100
 TTTTTTTTTTTTTTTTTTTTTTTTTTTTTT SHELXG      TELAPSE        0.28 TCPU        0.25

 CARTESIAN FORCES (ANALYTICAL)
   ATOM                     X                   Y                   Z
   1   6            -3.700743415417E-17 -3.700743415417E-17  1.850371707709E-17
   2   1             3.191085768861E-03  3.191085768861E-03  3.191085768861E-03
   3   1            -3.191085768861E-03 -3.191085768861E-03  3.191085768861E-03
   4   1             3.191085768861E-03 -3.191085768861E-03 -3.191085768861E-03
   5   1            -3.191085768861E-03  3.191085768861E-03 -3.191085768861E-03

 RESULTANT FORCE     1.851817310605E-16 -3.686287386451E-17  2.411265631608E-16

 SYMMETRY ALLOWED FORCES (ANALYTICAL) (DIRECTION, FORCE)

    1  1.1054245E-02
 TTTTTTTTTTTTTTTTTTTTTTTTTTTTTT TOTGRA      TELAPSE        0.29 TCPU        0.25
 INFORMATION **** opta001 **** GEOMETRY OUTPUT FILE
 CLASSICAL MODEL (SCHLEGEL) USED AS INITIAL HESSIAN MATRIX
 REFERENCE GEOMETRY DEFINED

 MAX GRADIENT      0.011054  THRESHOLD              0.000450 CONVERGED NO
 RMS GRADIENT      0.011054  THRESHOLD              0.000300 CONVERGED NO

 GRADIENT NORM     0.011054  GRADIENT THRESHOLD     0.500000

 PREDICTED ENERGY CHANGE    -0.173E-03

 INITIAL DISPLACEMENTS
  0.026485
 TTTTTTTTTTTTTTTTTTTTTTTTTTTTTT OPTI        TELAPSE        0.29 TCPU        0.26

 OPTOPTOPTOPTOPTOPTOPTOPTOPTOPTOPTOPTOPTOPTOPTOPTOPTOPTOPTOPTOPTOPTOPTOPTOPTOPT

 STARTING GEOMETRY OPTIMIZATION - INFORMATION ON SCF MOVED TO SCFOUT.LOG
 GEOMETRY OPTIMIZATION INFORMATION STORED IN OPTINFO.DAT

 OPTOPTOPTOPTOPTOPTOPTOPTOPTOPTOPTOPTOPTOPTOPTOPTOPTOPTOPTOPTOPTOPTOPTOPTOPTOPT
 *******************************************************************************
 COORDINATE OPTIMIZATION - POINT    2
 *******************************************************************************
 ATOMS IN THE ASYMMETRIC UNIT    2 - ATOMS IN THE UNIT CELL:    5
     ATOM          X(ANGSTROM)         Y(ANGSTROM)         Z(ANGSTROM)
 *******************************************************************************
   1 T   6 C     0.000000000000E+00  0.000000000000E+00  0.000000000000E+00
   2 T   1 H     6.330459275823E-01  6.330459275823E-01  6.330459275823E-01
   3 F   1 H    -6.330459275823E-01 -6.330459275823E-01  6.330459275823E-01
   4 F   1 H     6.330459275823E-01 -6.330459275823E-01 -6.330459275823E-01
   5 F   1 H    -6.330459275823E-01  6.330459275823E-01 -6.330459275823E-01

 T = ATOM BELONGING TO THE ASYMMETRIC UNIT

 TOTAL ENERGY(DFT)(AU)(  9) -4.0003433412999E+01     DE (AU)   -1.386E-04

 SYMMETRY ALLOWED FORCES  (COORDINATE, FORCE)

    1 -3.4912545E-04

 GRADIENT NORM     0.000349  GRADIENT THRESHOLD     0.500000

 PREDICTED ENERGY CHANGE    -0.142E-06

 MAX GRADIENT      0.000349  THRESHOLD              0.000450 CONVERGED YES
 RMS GRADIENT      0.000349  THRESHOLD              0.000300 CONVERGED NO
 MAX DISPLAC.      0.000811  THRESHOLD              0.001800 CONVERGED YES
 RMS DISPLAC.      0.000811  THRESHOLD              0.001200 CONVERGED YES
 TTTTTTTTTTTTTTTTTTTTTTTTTTTTTT OPTI        TELAPSE        0.44 TCPU        0.40
 *******************************************************************************
 COORDINATE OPTIMIZATION - POINT    3
 *******************************************************************************
 ATOMS IN THE ASYMMETRIC UNIT    2 - ATOMS IN THE UNIT CELL:    5
     ATOM          X(ANGSTROM)         Y(ANGSTROM)         Z(ANGSTROM)
 *******************************************************************************
   1 T   6 C     0.000000000000E+00  0.000000000000E+00  0.000000000000E+00
   2 T   1 H     6.329220575178E-01  6.329220575178E-01  6.329220575178E-01
   3 F   1 H    -6.329220575178E-01 -6.329220575178E-01  6.329220575178E-01
   4 F   1 H     6.329220575178E-01 -6.329220575178E-01 -6.329220575178E-01
   5 F   1 H    -6.329220575178E-01  6.329220575178E-01 -6.329220575178E-01

 T = ATOM BELONGING TO THE ASYMMETRIC UNIT

 TOTAL ENERGY(DFT)(AU)(  3) -4.0003433558074E+01     DE (AU)   -1.451E-07

 SYMMETRY ALLOWED FORCES  (COORDINATE, FORCE)

    1  1.3597496E-05

 GRADIENT NORM     0.000014  GRADIENT THRESHOLD     0.500000

 PREDICTED ENERGY CHANGE    -0.207E-09

 MAX GRADIENT      0.000014  THRESHOLD              0.000450 CONVERGED YES
 RMS GRADIENT      0.000014  THRESHOLD              0.000300 CONVERGED YES
 MAX DISPLAC.      0.000030  THRESHOLD              0.001800 CONVERGED YES
 RMS DISPLAC.      0.000030  THRESHOLD              0.001200 CONVERGED YES

 CONVERGENCE TESTS SATISFIED AFTER   3 ENERGY AND GRADIENT CALCULATIONS

 ******************************************************************
 * OPT END - CONVERGED * E(AU):  -4.000343355807E+01  POINTS    3 *
 ******************************************************************

 WARNING **** iordo **** not allocated - eigenvalues printing removed
 WARNING **** iordo **** not allocated - eigenvector printing removed
 EIGENVECTORS IN FORTRAN UNIT 10

 NEIGHBORS OF THE NON-EQUIVALENT ATOMS

 N = NUMBER OF NEIGHBORS AT DISTANCE R
    ATOM  N     R/ANG      R/AU   NEIGHBORS (ATOM LABELS AND CELL INDICES)
   1 C    4     1.0963     2.0716   2 H    0 0 0   3 H    0 0 0   4 H    0 0 0
                                    5 H    0 0 0

   2 H    1     1.0963     2.0716   1 C    0 0 0
   2 H    3     1.7902     3.3829   3 H    0 0 0   4 H    0 0 0   5 H    0 0 0


 FINAL OPTIMIZED GEOMETRY - DIMENSIONALITY OF THE SYSTEM      0
 (NON PERIODIC DIRECTION: LATTICE PARAMETER FORMALLY SET TO 500)
 *******************************************************************************
 ATOMS IN THE ASYMMETRIC UNIT    2 - ATOMS IN THE UNIT CELL:    5
     ATOM          X(ANGSTROM)         Y(ANGSTROM)         Z(ANGSTROM)
 *******************************************************************************
   1 T   6 C     0.000000000000E+00  0.000000000000E+00  0.000000000000E+00
   2 T   1 H     6.329220575178E-01  6.329220575178E-01  6.329220575178E-01
   3 F   1 H    -6.329220575178E-01 -6.329220575178E-01  6.329220575178E-01
   4 F   1 H     6.329220575178E-01 -6.329220575178E-01 -6.329220575178E-01
   5 F   1 H    -6.329220575178E-01  6.329220575178E-01 -6.329220575178E-01

 T = ATOM BELONGING TO THE ASYMMETRIC UNIT
 INFORMATION **** fort.34 **** GEOMETRY OUTPUT FILE

 ****  24 SYMMOPS - TRANSLATORS IN FRACTIONARY UNITS
  V INV                   ROTATION MATRICES                       TRANSLATOR
  1  1  1.00  0.00  0.00  0.00  1.00  0.00  0.00  0.00  1.00    0.00  0.00  0.00
  2  2 -1.00  0.00  0.00  0.00 -1.00  0.00  0.00  0.00  1.00    0.00  0.00  0.00
  3  3  1.00  0.00  0.00  0.00 -1.00  0.00  0.00  0.00 -1.00    0.00  0.00  0.00
  4  4 -1.00  0.00  0.00  0.00  1.00  0.00  0.00  0.00 -1.00    0.00  0.00  0.00
  5  6  0.00  0.00  1.00  1.00  0.00  0.00  0.00  1.00  0.00    0.00  0.00  0.00
  6  5  0.00  1.00  0.00  0.00  0.00  1.00  1.00  0.00  0.00    0.00  0.00  0.00
  7  8  0.00  0.00 -1.00 -1.00  0.00  0.00  0.00  1.00  0.00    0.00  0.00  0.00
  8  7  0.00 -1.00  0.00  0.00  0.00  1.00 -1.00  0.00  0.00    0.00  0.00  0.00
  9 10  0.00  0.00  1.00 -1.00  0.00  0.00  0.00 -1.00  0.00    0.00  0.00  0.00
 10  9  0.00 -1.00  0.00  0.00  0.00 -1.00  1.00  0.00  0.00    0.00  0.00  0.00
 11 12  0.00  0.00 -1.00  1.00  0.00  0.00  0.00 -1.00  0.00    0.00  0.00  0.00
 12 11  0.00  1.00  0.00  0.00  0.00 -1.00 -1.00  0.00  0.00    0.00  0.00  0.00
 13 13  0.00  1.00  0.00  1.00  0.00  0.00  0.00  0.00  1.00    0.00  0.00  0.00
 14 14  0.00 -1.00  0.00 -1.00  0.00  0.00  0.00  0.00  1.00    0.00  0.00  0.00
 15 16  0.00 -1.00  0.00  1.00  0.00  0.00  0.00  0.00 -1.00    0.00  0.00  0.00
 16 15  0.00  1.00  0.00 -1.00  0.00  0.00  0.00  0.00 -1.00    0.00  0.00  0.00
 17 17  1.00  0.00  0.00  0.00  0.00  1.00  0.00  1.00  0.00    0.00  0.00  0.00
 18 18  0.00  0.00  1.00  0.00  1.00  0.00  1.00  0.00  0.00    0.00  0.00  0.00
 19 21 -1.00  0.00  0.00  0.00  0.00 -1.00  0.00  1.00  0.00    0.00  0.00  0.00
 20 22  0.00  0.00  1.00  0.00 -1.00  0.00 -1.00  0.00  0.00    0.00  0.00  0.00
 21 19 -1.00  0.00  0.00  0.00  0.00  1.00  0.00 -1.00  0.00    0.00  0.00  0.00
 22 20  0.00  0.00 -1.00  0.00 -1.00  0.00  1.00  0.00  0.00    0.00  0.00  0.00
 23 23  1.00  0.00  0.00  0.00  0.00 -1.00  0.00 -1.00  0.00    0.00  0.00  0.00
 24 24  0.00  0.00 -1.00  0.00  1.00  0.00 -1.00  0.00  0.00    0.00  0.00  0.00
 TTTTTTTTTTTTTTTTTTTTTTTTTTTTTT END         TELAPSE        0.54 TCPU        0.50
 EEEEEEEEEE TERMINATION  DATE 23 02 2010 TIME 12:28:25.1
