date Fri Sep 10 09:47:48 BST 2010
hostname pcphy162
system Linux pcphy162 2.6.31-22-generic #63-Ubuntu SMP Wed Aug 18 22:54:26 UTC 2010 i686 GNU/Linux
user pc229
output data in /home/pc229/CUBE/MgO/MgO.out
crystal executable in /home/pc229/bin/CRYSTAL09/bin/Linux-ifort_11.1/v1_0_1
input data in /home/pc229/CUBE/MgO/MgO.d12
temporary directory /home/pc229/bin/CRYSTAL09_tmp/tmp14741_pc229
MGO BULK - GEOMETRY TEST
CRYSTAL
0 0 0
225
4.217
2
12 0.    0.    0.
8 0.5   0.5   0.5
END
12  3
0  0  8  2.  1.
68371.875      0.0002226
9699.34009    0.0018982
2041.176786   0.0110451
529.862906   0.0500627
159.186000   0.169123
54.6848     0.367031
21.2357     0.400410
8.74604    0.14987
0 1 6 8. 1.
156.795  -0.00624  0.00772
31.0339  -0.07882  0.06427
9.6453   -0.07992  0.2104
3.7109    0.29063  0.34314
1.61164   0.57164  0.3735
0.64294   0.30664  0.23286
0 1 1 0. 1.
0.4       1.       1.
8 3
0 0 8 2. 1.
4000.    0.00144
1355.58  0.00764
248.545  0.05370
69.5339  0.16818
23.8868  0.36039
9.27593  0.38612
3.82034  0.14712
1.23514  0.07105
0 1 5 8. 1.
52.1878 -0.00873  0.00922
10.3293 -0.08979  0.07068
3.21034 -0.04079  0.20433
1.23514  0.37666  0.34958
0.536420 0.42248  0.27774
0 1 1 0. 1.
0.210000 1.  1.
99 0
END
SHRINK
6 6
END

         
 *******************************************************************************
 *                                                                             *
 *                                CRYSTAL09                                    *
 *                              public : 1.0                                   *
 *                      March 5th, 2010 - sequential executable                *
 *                                                                             *
 *                                                                             *
 *                                                                             *
 *                              MAIN AUTHORS                                   *
 *                                                                             *
 *    R. DOVESI(1,10), V.R. SAUNDERS(2), C. ROETTI(1,10), R. ORLANDO (1,3),    *
 *  C.M. ZICOVICH-WILSON(1,4), F. PASCALE(5), B. CIVALLERI(1,10), K. DOLL(6),  *
 *       N.M. HARRISON(2,7), I. J. BUSH(2), Ph. D'ARCO(8), M. LLUNELL(9)       *
 *                                                                             *
 * (1) THEORETICAL CHEMISTRY GROUP - UNIVERSITA' DI TORINO - TORINO (ITALY)    *
 *      http://www.crystal.unito.it                                            *
 * (2) COMPUTATIONAL SCIENCE & ENGINEERING DEPARTMENT - CCLRC DARESBURY (UK)   *
 *     http://www.cse.clrc.ac.uk/cmg/CRYSTAL/                                  *
 * (3) UNIVERSITA' DEL PIEMONTE ORIENTALE - ALESSANDRIA (ITALY)                *
 * (4) UNIVERSIDAD AUTONOMA DEL ESTADO DE MORELOS - CUERNAVACA (MEXICO)        *
 * (5) UNIVERSITE' HENRI POINCARE' - NANCY (FRANCE)                            *
 * (6) MPI FUER FESTKOERPERFORSCHUNG - STUTTGART (GERMANY)                     *
 * (7) IMPERIAL COLLEGE - LONDON (UK)                                          *
 * (8) UNIVERSITE' PIERRE ET MARIE CURIE - PARIS (FRANCE)                      *
 * (9) UNIVERSIDAD DE BARCELONA - BARCELONA (SPAIN)                            *
 *(10) NIS - NANOSTRUCTURED INTERFACES AND SURFACES - TORINO (ITALY)           *
 *     http://www.crystal.unito.it                                             *
 *******************************************************************************
 EEEEEEEEEE STARTING  DATE 10 09 2010 TIME 09:47:48.2
 MGO BULK - GEOMETRY TEST                                                        

 CRYSTAL CALCULATION
 (INPUT ACCORDING TO THE INTERNATIONAL TABLES FOR X-RAY CRYSTALLOGRAPHY)
 CRYSTAL FAMILY                       :  CUBIC       
 CRYSTAL CLASS  (GROTH - 1921)        :  CUBIC HEXAKISOCTAHEDRAL              

 SPACE GROUP (CENTROSYMMETRIC)        :  F M 3 M         

 LATTICE PARAMETERS  (ANGSTROMS AND DEGREES) - CONVENTIONAL CELL
        A           B           C        ALPHA        BETA       GAMMA
     4.21700     4.21700     4.21700    90.00000    90.00000    90.00000


 NUMBER OF IRREDUCIBLE ATOMS IN THE CONVENTIONAL CELL:    2

 INPUT COORDINATES

 ATOM AT. N.              COORDINATES
   1  12     0.000000000000E+00  0.000000000000E+00  0.000000000000E+00
   2   8     5.000000000000E-01  5.000000000000E-01  5.000000000000E-01

 *******************************************************************************

 << INFORMATION >>: FROM NOW ON, ALL COORDINATES REFER TO THE PRIMITIVE CELL

 *******************************************************************************

 LATTICE PARAMETERS  (ANGSTROMS AND DEGREES) - PRIMITIVE CELL
       A          B          C         ALPHA     BETA     GAMMA        VOLUME
    2.98187    2.98187    2.98187    60.00000  60.00000  60.00000     18.747822

 COORDINATES OF THE EQUIVALENT ATOMS (FRACTIONAL UNITS)

 N. ATOM EQUIV AT. N.          X                  Y                  Z

   1   1   1   12 MG    0.00000000000E+00  0.00000000000E+00  0.00000000000E+00

   2   2   1    8 O    -5.00000000000E-01 -5.00000000000E-01 -5.00000000000E-01

 NUMBER OF SYMMETRY OPERATORS         :   48
 *******************************************************************************
 * GEOMETRY EDITING - INPUT COORDINATES ARE GIVEN IN ANGSTROM         
 *******************************************************************************

 GEOMETRY NOW FULLY CONSISTENT WITH THE GROUP

 GCALCO - MAX INDICES DIRECT LATTICE VECTOR    14    14    14
 NO.OF VECTORS CREATED 6999 STARS  105 RMAX    59.63435 BOHR

 GEOMETRY FOR WAVE FUNCTION - DIMENSIONALITY OF THE SYSTEM    3
 (NON PERIODIC DIRECTION: LATTICE PARAMETER FORMALLY SET TO 500)
 *******************************************************************************
 LATTICE PARAMETERS (ANGSTROMS AND DEGREES) - BOHR = 0.5291772083 ANGSTROM
 PRIMITIVE CELL - CENTRING CODE 5/0 VOLUME=    18.747822 - DENSITY  3.541 g/cm^3
         A              B              C           ALPHA      BETA       GAMMA 
     2.98186930     2.98186930     2.98186930    60.000000  60.000000  60.000000
 *******************************************************************************
 ATOMS IN THE ASYMMETRIC UNIT    2 - ATOMS IN THE UNIT CELL:    2
     ATOM              X/A                 Y/B                 Z/C    
 *******************************************************************************
   1 T  12 MG    0.000000000000E+00  0.000000000000E+00  0.000000000000E+00
   2 T   8 O     5.000000000000E-01  5.000000000000E-01  5.000000000000E-01

 TRANSFORMATION MATRIX PRIMITIVE-CRYSTALLOGRAPHIC CELL
 -1.0000  1.0000  1.0000  1.0000 -1.0000  1.0000  1.0000  1.0000 -1.0000

 *******************************************************************************
 CRYSTALLOGRAPHIC CELL (VOLUME=         74.99128631)
         A              B              C           ALPHA      BETA       GAMMA 
     4.21700000     4.21700000     4.21700000    90.000000  90.000000  90.000000

 COORDINATES IN THE CRYSTALLOGRAPHIC CELL
     ATOM              X/A                 Y/B                 Z/C    
 *******************************************************************************
   1 T  12 MG    0.000000000000E+00  0.000000000000E+00  0.000000000000E+00
   2 T   8 O     5.000000000000E-01  5.000000000000E-01  5.000000000000E-01

 T = ATOM BELONGING TO THE ASYMMETRIC UNIT

 ****  48 SYMMOPS - TRANSLATORS IN FRACTIONAL UNITS
  V INV                   ROTATION MATRICES                       TRANSLATOR
  1  1  1.00  0.00  0.00  0.00  1.00  0.00  0.00  0.00  1.00    0.00  0.00  0.00
  2  2  0.00  1.00  0.00  1.00  0.00  0.00 -1.00 -1.00 -1.00    0.00  0.00  0.00
  3  3 -1.00 -1.00 -1.00  0.00  0.00  1.00  0.00  1.00  0.00    0.00  0.00  0.00
  4  4  0.00  0.00  1.00 -1.00 -1.00 -1.00  1.00  0.00  0.00    0.00  0.00  0.00
  5  6  0.00  0.00  1.00  1.00  0.00  0.00  0.00  1.00  0.00    0.00  0.00  0.00
  6  5  0.00  1.00  0.00  0.00  0.00  1.00  1.00  0.00  0.00    0.00  0.00  0.00
  7  8  1.00  0.00  0.00  0.00  0.00  1.00 -1.00 -1.00 -1.00    0.00  0.00  0.00
  8  7  1.00  0.00  0.00 -1.00 -1.00 -1.00  0.00  1.00  0.00    0.00  0.00  0.00
  9 10 -1.00 -1.00 -1.00  0.00  1.00  0.00  1.00  0.00  0.00    0.00  0.00  0.00
 10  9  0.00  0.00  1.00  0.00  1.00  0.00 -1.00 -1.00 -1.00    0.00  0.00  0.00
 11 12  0.00  1.00  0.00 -1.00 -1.00 -1.00  0.00  0.00  1.00    0.00  0.00  0.00
 12 11 -1.00 -1.00 -1.00  1.00  0.00  0.00  0.00  0.00  1.00    0.00  0.00  0.00
 13 13  0.00 -1.00  0.00 -1.00  0.00  0.00  0.00  0.00 -1.00    0.00  0.00  0.00
 14 14 -1.00  0.00  0.00  0.00 -1.00  0.00  1.00  1.00  1.00    0.00  0.00  0.00
 15 16  0.00  0.00 -1.00  1.00  1.00  1.00  0.00 -1.00  0.00    0.00  0.00  0.00
 16 15  1.00  1.00  1.00  0.00  0.00 -1.00 -1.00  0.00  0.00    0.00  0.00  0.00
 17 17 -1.00  0.00  0.00  0.00  0.00 -1.00  0.00 -1.00  0.00    0.00  0.00  0.00
 18 18  0.00  0.00 -1.00  0.00 -1.00  0.00 -1.00  0.00  0.00    0.00  0.00  0.00
 19 21  0.00  0.00 -1.00 -1.00  0.00  0.00  1.00  1.00  1.00    0.00  0.00  0.00
 20 22  1.00  1.00  1.00 -1.00  0.00  0.00  0.00 -1.00  0.00    0.00  0.00  0.00
 21 19  0.00 -1.00  0.00  1.00  1.00  1.00 -1.00  0.00  0.00    0.00  0.00  0.00
 22 20  0.00 -1.00  0.00  0.00  0.00 -1.00  1.00  1.00  1.00    0.00  0.00  0.00
 23 23  1.00  1.00  1.00  0.00 -1.00  0.00  0.00  0.00 -1.00    0.00  0.00  0.00
 24 24 -1.00  0.00  0.00  1.00  1.00  1.00  0.00  0.00 -1.00    0.00  0.00  0.00
 25 25 -1.00  0.00  0.00  0.00 -1.00  0.00  0.00  0.00 -1.00    0.00  0.00  0.00
 26 26  0.00 -1.00  0.00 -1.00  0.00  0.00  1.00  1.00  1.00    0.00  0.00  0.00
 27 27  1.00  1.00  1.00  0.00  0.00 -1.00  0.00 -1.00  0.00    0.00  0.00  0.00
 28 28  0.00  0.00 -1.00  1.00  1.00  1.00 -1.00  0.00  0.00    0.00  0.00  0.00
 29 30  0.00  0.00 -1.00 -1.00  0.00  0.00  0.00 -1.00  0.00    0.00  0.00  0.00
 30 29  0.00 -1.00  0.00  0.00  0.00 -1.00 -1.00  0.00  0.00    0.00  0.00  0.00
 31 32 -1.00  0.00  0.00  0.00  0.00 -1.00  1.00  1.00  1.00    0.00  0.00  0.00
 32 31 -1.00  0.00  0.00  1.00  1.00  1.00  0.00 -1.00  0.00    0.00  0.00  0.00
 33 34  1.00  1.00  1.00  0.00 -1.00  0.00 -1.00  0.00  0.00    0.00  0.00  0.00
 34 33  0.00  0.00 -1.00  0.00 -1.00  0.00  1.00  1.00  1.00    0.00  0.00  0.00
 35 36  0.00 -1.00  0.00  1.00  1.00  1.00  0.00  0.00 -1.00    0.00  0.00  0.00
 36 35  1.00  1.00  1.00 -1.00  0.00  0.00  0.00  0.00 -1.00    0.00  0.00  0.00
 37 37  0.00  1.00  0.00  1.00  0.00  0.00  0.00  0.00  1.00    0.00  0.00  0.00
 38 38  1.00  0.00  0.00  0.00  1.00  0.00 -1.00 -1.00 -1.00    0.00  0.00  0.00
 39 40  0.00  0.00  1.00 -1.00 -1.00 -1.00  0.00  1.00  0.00    0.00  0.00  0.00
 40 39 -1.00 -1.00 -1.00  0.00  0.00  1.00  1.00  0.00  0.00    0.00  0.00  0.00
 41 41  1.00  0.00  0.00  0.00  0.00  1.00  0.00  1.00  0.00    0.00  0.00  0.00
 42 42  0.00  0.00  1.00  0.00  1.00  0.00  1.00  0.00  0.00    0.00  0.00  0.00
 43 45  0.00  0.00  1.00  1.00  0.00  0.00 -1.00 -1.00 -1.00    0.00  0.00  0.00
 44 46 -1.00 -1.00 -1.00  1.00  0.00  0.00  0.00  1.00  0.00    0.00  0.00  0.00
 45 43  0.00  1.00  0.00 -1.00 -1.00 -1.00  1.00  0.00  0.00    0.00  0.00  0.00
 46 44  0.00  1.00  0.00  0.00  0.00  1.00 -1.00 -1.00 -1.00    0.00  0.00  0.00
 47 47 -1.00 -1.00 -1.00  0.00  1.00  0.00  0.00  0.00  1.00    0.00  0.00  0.00
 48 48  1.00  0.00  0.00 -1.00 -1.00 -1.00  0.00  0.00  1.00    0.00  0.00  0.00

 DIRECT LATTICE VECTORS CARTESIAN COMPONENTS (ANGSTROM)
          X                    Y                    Z
   0.000000000000E+00   0.210850000000E+01   0.210850000000E+01
   0.210850000000E+01   0.000000000000E+00   0.210850000000E+01
   0.210850000000E+01   0.210850000000E+01   0.000000000000E+00


 CARTESIAN COORDINATES - PRIMITIVE CELL
 *******************************************************************************
 *      ATOM          X(ANGSTROM)         Y(ANGSTROM)         Z(ANGSTROM)
 *******************************************************************************
   1    12 MG    0.000000000000E+00  0.000000000000E+00  0.000000000000E+00
   2     8 O     2.108500000000E+00  2.108500000000E+00  2.108500000000E+00

 *******************************************************************************
 LOCAL ATOMIC FUNCTIONS BASIS SET
 *******************************************************************************
   ATOM  X(AU)  Y(AU)  Z(AU)    NO. TYPE  EXPONENT  S COEF   P COEF   D/F/G COEF
 *******************************************************************************
   1 MG  0.000  0.000  0.000
                                  1 S  
                                         6.837E+04 2.226E-04 0.000E+00 0.000E+00
                                         9.699E+03 1.898E-03 0.000E+00 0.000E+00
                                         2.041E+03 1.105E-02 0.000E+00 0.000E+00
                                         5.299E+02 5.006E-02 0.000E+00 0.000E+00
                                         1.592E+02 1.691E-01 0.000E+00 0.000E+00
                                         5.468E+01 3.670E-01 0.000E+00 0.000E+00
                                         2.124E+01 4.004E-01 0.000E+00 0.000E+00
                                         8.746E+00 1.499E-01 0.000E+00 0.000E+00
                             2-   5 SP 
                                         1.568E+02-6.240E-03 7.720E-03 0.000E+00
                                         3.103E+01-7.882E-02 6.427E-02 0.000E+00
                                         9.645E+00-7.992E-02 2.104E-01 0.000E+00
                                         3.711E+00 2.906E-01 3.431E-01 0.000E+00
                                         1.612E+00 5.716E-01 3.735E-01 0.000E+00
                                         6.429E-01 3.066E-01 2.329E-01 0.000E+00
                             6-   9 SP 
                                         4.000E-01 1.000E+00 1.000E+00 0.000E+00
   2 O   3.984  3.984  3.984
                                 10 S  
                                         4.000E+03 1.440E-03 0.000E+00 0.000E+00
                                         1.356E+03 7.640E-03 0.000E+00 0.000E+00
                                         2.485E+02 5.370E-02 0.000E+00 0.000E+00
                                         6.953E+01 1.682E-01 0.000E+00 0.000E+00
                                         2.389E+01 3.604E-01 0.000E+00 0.000E+00
                                         9.276E+00 3.861E-01 0.000E+00 0.000E+00
                                         3.820E+00 1.471E-01 0.000E+00 0.000E+00
                                         1.235E+00 7.105E-02 0.000E+00 0.000E+00
                            11-  14 SP 
                                         5.219E+01-8.730E-03 9.220E-03 0.000E+00
                                         1.033E+01-8.979E-02 7.068E-02 0.000E+00
                                         3.210E+00-4.079E-02 2.043E-01 0.000E+00
                                         1.235E+00 3.767E-01 3.496E-01 0.000E+00
                                         5.364E-01 4.225E-01 2.777E-01 0.000E+00
                            15-  18 SP 
                                         2.100E-01 1.000E+00 1.000E+00 0.000E+00
 *******************************************************************************
 N. OF ATOMS PER CELL        2  COULOMB OVERLAP TOL         (T1) 10** -6
 NUMBER OF SHELLS            6  COULOMB PENETRATION TOL     (T2) 10** -6
 NUMBER OF AO               18  EXCHANGE OVERLAP TOL        (T3) 10** -6
 N. OF ELECTRONS PER CELL   20  EXCHANGE PSEUDO OVP (F(G))  (T4) 10** -6
 CORE ELECTRONS PER CELL    12  EXCHANGE PSEUDO OVP (P(G))  (T5) 10**-12
 N. OF SYMMETRY OPERATORS   48  POLE ORDER IN MONO ZONE                4
 *******************************************************************************
 TYPE OF CALCULATION :  RESTRICTED CLOSED SHELL
 HARTREE-FOCK HAMILTONIAN

 CAPPA:IS1  6;IS2  6;IS3  6; K PTS MONK NET   16; SYMMOPS: K SPACE 48;G SPACE 48

 *******************************************************************************
 MAX NUMBER OF SCF CYCLES      50  CONVERGENCE ON DELTAP        10**-16
 NO MIXING OF F MATRICES           CONVERGENCE ON ENERGY        10**- 6
 SHRINK. FACT.(MONKH.)    6  6  6  NUMBER OF K POINTS IN THE IBZ     16
 SHRINKING FACTOR(GILAT NET)    6  NUMBER OF K POINTS(GILAT NET)     16
 *******************************************************************************
 *** K POINTS COORDINATES (OBLIQUE COORDINATES IN UNITS OF IS =  6)
   1-R(  0  0  0)   2-C(  1  0  0)   3-C(  2  0  0)   4-R(  3  0  0)
   5-C(  1  1  0)   6-C(  2  1  0)   7-C(  3  1  0)   8-C(  4  1  0)
   9-C(  5  1  0)  10-C(  2  2  0)  11-C(  3  2  0)  12-C(  4  2  0)
  13-R(  3  3  0)  14-C(  3  2  1)  15-C(  4  2  1)  16-C(  4  3  1)

 DIRECT LATTICE VECTORS COMPON. (A.U.)     RECIP. LATTICE VECTORS COMPON. (A.U.) 
        X            Y            Z              X            Y            Z
    0.0000000    3.9844876    3.9844876     -0.7884559    0.7884559    0.7884559
    3.9844876    0.0000000    3.9844876      0.7884559   -0.7884559    0.7884559
    3.9844876    3.9844876    0.0000000      0.7884559    0.7884559   -0.7884559

 DISK SPACE FOR EIGENVECTORS (FTN 10)       9396 REALS

 SYMMETRY ADAPTION OF THE BLOCH FUNCTIONS ENABLED

 DIMENSIONS  P(G)=   17290 F(G)=    3362 P(G),F(G) (IRR)     864
 MAX G-VECTOR INDEX FOR 1- AND 2-ELECTRON INTEGRALS 247

 INFORMATION **** GENBUF **** COULOMB BIPO BUFFER LENGTH (WORDS) =       79850
 TTTTTTTTTTTTTTTTTTTTTTTTTTTTTT INPUT       TELAPSE        0.03 TCPU        0.00

 NEIGHBORS OF THE NON-EQUIVALENT ATOMS

 N = NUMBER OF NEIGHBORS AT DISTANCE R
    ATOM  N     R/ANG      R/AU   NEIGHBORS (ATOM LABELS AND CELL INDICES)
   1 MG   6     2.1085     3.9845   2 O   -1 0 0   2 O    0-1 0   2 O    0 0-1
                                    2 O   -1-1 0   2 O   -1 0-1   2 O    0-1-1
   1 MG  12     2.9819     5.6349   1 MG  -1 0 0   1 MG   1 0 0   1 MG  -1 0 1
                                    1 MG   1 0-1   1 MG  -1 1 0   1 MG   1-1 0
                                    1 MG   0-1 0   1 MG   0 1 0   1 MG   0-1 1
                                    1 MG   0 1-1   1 MG   0 0-1   1 MG   0 0 1
   1 MG   8     3.6520     6.9013   2 O    0 0 0   2 O   -1-1 1   2 O   -1 1-1
                                    2 O    1-1-1   2 O   -2 0 0   2 O    0-2 0
                                    2 O    0 0-2   2 O   -1-1-1
   1 MG   6     4.2170     7.9690   1 MG  -1-1 1   1 MG   1 1-1   1 MG  -1 1-1
                                    1 MG   1-1 1   1 MG  -1 1 1   1 MG   1-1-1
   1 MG  24     4.7147     8.9096   2 O    1 0-1   2 O   -1 0 1   2 O    1-1 0
                                    2 O   -1 1 0   2 O    0 1-1   2 O    0-1 1
                                    2 O   -2 0 1   2 O   -2 1 0   2 O    1 0-2
                                    2 O    1-2 0   2 O    0-2 1   2 O    0 1-2
                                    2 O   -2-1 1   2 O   -2 1-1   2 O   -1-2 1
                                    2 O   -1 1-2   2 O    1-1-2   2 O    1-2-1
                                    2 O   -2-1 0   2 O   -2 0-1   2 O   -1-2 0
                                    2 O   -1 0-2   2 O    0-2-1   2 O    0-1-2
   1 MG  24     5.1647     9.7600   1 MG  -2 0 1   1 MG   2 0-1   1 MG  -2 1 0
                                    1 MG   2-1 0   1 MG  -2 1 1   1 MG   2-1-1
                                    1 MG  -1-1 0   1 MG   1 1 0   1 MG  -1-1 2
                                    1 MG   1 1-2   1 MG  -1 0-1   1 MG   1 0 1
                                    1 MG  -1 0 2   1 MG   1 0-2   1 MG  -1 2-1
                                    1 MG   1-2 1   1 MG  -1 2 0   1 MG   1-2 0
                                    1 MG   0-2 1   1 MG   0 2-1   1 MG   0-1-1
                                    1 MG   0 1 1   1 MG   0-1 2   1 MG   0 1-2

   2 O    6     2.1085     3.9845   1 MG   1 0 0   1 MG   0 1 0   1 MG   0 0 1
                                    1 MG   1 1 0   1 MG   1 0 1   1 MG   0 1 1
   2 O   12     2.9819     5.6349   2 O   -1 0 0   2 O    1 0 0   2 O   -1 0 1
                                    2 O    1 0-1   2 O   -1 1 0   2 O    1-1 0
                                    2 O    0-1 0   2 O    0 1 0   2 O    0-1 1
                                    2 O    0 1-1   2 O    0 0-1   2 O    0 0 1
   2 O    8     3.6520     6.9013   1 MG   0 0 0   1 MG   1 1-1   1 MG   1-1 1
                                    1 MG  -1 1 1   1 MG   2 0 0   1 MG   0 2 0
                                    1 MG   0 0 2   1 MG   1 1 1
   2 O    6     4.2170     7.9690   2 O   -1-1 1   2 O    1 1-1   2 O   -1 1-1
                                    2 O    1-1 1   2 O   -1 1 1   2 O    1-1-1
   2 O   24     4.7147     8.9096   1 MG  -1 0 1   1 MG   1 0-1   1 MG  -1 1 0
                                    1 MG   1-1 0   1 MG   0-1 1   1 MG   0 1-1
                                    1 MG   2 0-1   1 MG   2-1 0   1 MG  -1 0 2
                                    1 MG  -1 2 0   1 MG   0 2-1   1 MG   0-1 2
                                    1 MG   2 1-1   1 MG   2-1 1   1 MG   1 2-1
                                    1 MG   1-1 2   1 MG  -1 1 2   1 MG  -1 2 1
                                    1 MG   2 1 0   1 MG   2 0 1   1 MG   1 2 0
                                    1 MG   1 0 2   1 MG   0 2 1   1 MG   0 1 2
   2 O   24     5.1647     9.7600   2 O   -2 0 1   2 O    2 0-1   2 O   -2 1 0
                                    2 O    2-1 0   2 O   -2 1 1   2 O    2-1-1
                                    2 O   -1-1 0   2 O    1 1 0   2 O   -1-1 2
                                    2 O    1 1-2   2 O   -1 0-1   2 O    1 0 1
                                    2 O   -1 0 2   2 O    1 0-2   2 O   -1 2-1
                                    2 O    1-2 1   2 O   -1 2 0   2 O    1-2 0
                                    2 O    0-2 1   2 O    0 2-1   2 O    0-1-1
                                    2 O    0 1 1   2 O    0-1 2   2 O    0 1-2


 THERE ARE NO SYMMETRY ALLOWED DIRECTIONS
 TTTTTTTTTTTTTTTTTTTTTTTTTTTTTT SYMM        TELAPSE        0.05 TCPU        0.00
 TTTTTTTTTTTTTTTTTTTTTTTTTTTTTT INT_SCREEN  TELAPSE        0.05 TCPU        0.01
 INFORMATION **** GENBUF **** COULOMB BIPO BUFFER LENGTH (WORDS) =       79850
 INFORMATION **** EXCBUF **** EXCH. BIPO BUFFER: WORDS USED =      102474
 TTTTTTTTTTTTTTTTTTTTTTTTTTTTTT MONIRR      TELAPSE        0.07 TCPU        0.03

  GAUSS70 FOR COULOMB   GAUSS70 FOR EXCHANGE
 **SHELL_ORTHODOX** SPACE FOR BIEL. INTEGRALS     1 BUFFERS
 TTTTTTTTTTTTTTTTTTTTTTTTTTTTTT SHLC        TELAPSE        1.80 TCPU        1.16
 TTTTTTTTTTTTTTTTTTTTTTTTTTTTTT MONMAD      TELAPSE        1.86 TCPU        1.22
 TTTTTTTTTTTTTTTTTTTTTTTTTTTTTT INT_CALC    TELAPSE        1.87 TCPU        1.22
 EEEEEEEEEE INT_CALC TERMINATION  DATE 10 09 2010 TIME 09:47:50.0

 *******************************************************************************
 MGO BULK - GEOMETRY TEST                                                        
 CRYSTAL - SCF - TYPE OF CALCULATION :  RESTRICTED CLOSED SHELL
 *******************************************************************************

 CAPPA:IS1  6;IS2  6;IS3  6; K PTS MONK NET   16; SYMMOPS: K SPACE 48;G SPACE 48

 TTTTTTTTTTTTTTTTTTTTTTTTTTTTTT SDIK        TELAPSE        1.87 TCPU        1.23

 AAAAAAAAAAAAAAAAAAAAAAAAAAAAAAAAAAAAAAAAAAAAAAAAAAAAAAAAAAAAAAAAAAAAAAAAAAAAAAA
         ATOMIC WAVEFUNCTION(S)


 NUCLEAR CHARGE 12.0  SYMMETRY SPECIES            S    P
 N. ELECTRONS   10.0  NUMBER OF PRIMITIVE GTOS   15    7
                      NUMBER OF CONTRACTED GTOS   3    2
                      NUMBER OF CLOSED SHELLS     2    1
                      OPEN SHELL OCCUPATION       0    0

  ZNUC SCFIT  TOTAL HF ENERGY   KINETIC ENERGY   VIRIAL THEOREM ACCURACY
  12.0   6   -1.988200719E+02  1.987325169E+02 -2.000440567E+00  1.3E-06

 NUCLEAR CHARGE  8.0  SYMMETRY SPECIES            S    P
 N. ELECTRONS   10.0  NUMBER OF PRIMITIVE GTOS   14    6
                      NUMBER OF CONTRACTED GTOS   3    2
                      NUMBER OF CLOSED SHELLS     2    1
                      OPEN SHELL OCCUPATION       0    0

  ZNUC SCFIT  TOTAL HF ENERGY   KINETIC ENERGY   VIRIAL THEOREM ACCURACY
   8.0  37   -7.429054355E+01  7.468454787E+01 -1.994724420E+00  4.5E-06

 AAAAAAAAAAAAAAAAAAAAAAAAAAAAAAAAAAAAAAAAAAAAAAAAAAAAAAAAAAAAAAAAAAAAAAAAAAAAAAA

 CHARGE NORMALIZATION FACTOR   1.00000000
 TOTAL ATOMIC CHARGES:
  10.0000000  10.0000000
 TTTTTTTTTTTTTTTTTTTTTTTTTTTTTT QGAM        TELAPSE        1.88 TCPU        1.24
 TTTTTTTTTTTTTTTTTTTTTTTTTTTTTT BIEL        TELAPSE        1.89 TCPU        1.24
 TTTTTTTTTTTTTTTTTTTTTTTTTTTTTT TOTENY      TELAPSE        1.89 TCPU        1.25
 CYC   0 ETOT(AU) -2.750851890564E+02 DETOT -2.75E+02 tst  0.00E+00 PX  1.00E+00
 TTTTTTTTTTTTTTTTTTTTTTTTTTTTTT FDIK        TELAPSE        1.89 TCPU        1.25
 INSULATING STATE
 TOP OF VALENCE BANDS -    BAND     10; K    1; EIG -3.4498580E-01 AU
 BOTTOM OF VIRTUAL BANDS - BAND     11; K    1; EIG  3.7877063E-01 AU
 TTTTTTTTTTTTTTTTTTTTTTTTTTTTTT PDIG        TELAPSE        1.89 TCPU        1.25
 CHARGE NORMALIZATION FACTOR   1.00000000
 TOTAL ATOMIC CHARGES:
  10.0166666   9.9833334
 TTTTTTTTTTTTTTTTTTTTTTTTTTTTTT QGAM        TELAPSE        1.89 TCPU        1.25
 TTTTTTTTTTTTTTTTTTTTTTTTTTTTTT BIEL        TELAPSE        1.91 TCPU        1.27
 TTTTTTTTTTTTTTTTTTTTTTTTTTTTTT TOTENY      TELAPSE        1.91 TCPU        1.27
 CYC   1 ETOT(AU) -2.746575101188E+02 DETOT  4.28E-01 tst  0.00E+00 PX  1.00E+00
 TTTTTTTTTTTTTTTTTTTTTTTTTTTTTT FDIK        TELAPSE        1.91 TCPU        1.27
 INSULATING STATE
 TOP OF VALENCE BANDS -    BAND     10; K    1; EIG -2.6919701E-01 AU
 BOTTOM OF VIRTUAL BANDS - BAND     11; K    1; EIG  4.4267285E-01 AU
 TTTTTTTTTTTTTTTTTTTTTTTTTTTTTT PDIG        TELAPSE        1.91 TCPU        1.28
 CHARGE NORMALIZATION FACTOR   1.00000000
 TOTAL ATOMIC CHARGES:
  10.0245903   9.9754097
 TTTTTTTTTTTTTTTTTTTTTTTTTTTTTT QGAM        TELAPSE        1.92 TCPU        1.28
 TTTTTTTTTTTTTTTTTTTTTTTTTTTTTT BIEL        TELAPSE        1.93 TCPU        1.29
 TTTTTTTTTTTTTTTTTTTTTTTTTTTTTT TOTENY      TELAPSE        1.93 TCPU        1.29
 CYC   2 ETOT(AU) -2.746615677177E+02 DETOT -4.06E-03 tst  1.64E-03 PX  8.43E-02
 TTTTTTTTTTTTTTTTTTTTTTTTTTTTTT FDIK        TELAPSE        1.94 TCPU        1.30
 INSULATING STATE
 TOP OF VALENCE BANDS -    BAND     10; K    1; EIG -3.3742117E-01 AU
 BOTTOM OF VIRTUAL BANDS - BAND     11; K    1; EIG  4.0024743E-01 AU
 TTTTTTTTTTTTTTTTTTTTTTTTTTTTTT PDIG        TELAPSE        1.94 TCPU        1.30
 CHARGE NORMALIZATION FACTOR   1.00000000
 TOTAL ATOMIC CHARGES:
  10.0209356   9.9790644
 TTTTTTTTTTTTTTTTTTTTTTTTTTTTTT QGAM        TELAPSE        1.94 TCPU        1.30
 TTTTTTTTTTTTTTTTTTTTTTTTTTTTTT BIEL        TELAPSE        1.95 TCPU        1.32
 TTTTTTTTTTTTTTTTTTTTTTTTTTTTTT TOTENY      TELAPSE        1.96 TCPU        1.32
 CYC   3 ETOT(AU) -2.746630829555E+02 DETOT -1.52E-03 tst  6.28E-04 PX  5.08E-02
 TTTTTTTTTTTTTTTTTTTTTTTTTTTTTT FDIK        TELAPSE        1.96 TCPU        1.32
 INSULATING STATE
 TOP OF VALENCE BANDS -    BAND     10; K    1; EIG -2.9375492E-01 AU
 BOTTOM OF VIRTUAL BANDS - BAND     11; K    1; EIG  4.2920635E-01 AU
 TTTTTTTTTTTTTTTTTTTTTTTTTTTTTT PDIG        TELAPSE        1.96 TCPU        1.32
 CHARGE NORMALIZATION FACTOR   1.00000000
 TOTAL ATOMIC CHARGES:
  10.0229243   9.9770757
 TTTTTTTTTTTTTTTTTTTTTTTTTTTTTT QGAM        TELAPSE        1.96 TCPU        1.32
 TTTTTTTTTTTTTTTTTTTTTTTTTTTTTT BIEL        TELAPSE        1.98 TCPU        1.34
 TTTTTTTTTTTTTTTTTTTTTTTTTTTTTT TOTENY      TELAPSE        1.98 TCPU        1.34
 CYC   4 ETOT(AU) -2.746636852304E+02 DETOT -6.02E-04 tst  2.44E-04 PX  3.19E-02
 TTTTTTTTTTTTTTTTTTTTTTTTTTTTTT FDIK        TELAPSE        1.98 TCPU        1.34
 INSULATING STATE
 TOP OF VALENCE BANDS -    BAND     10; K    1; EIG -3.2135998E-01 AU
 BOTTOM OF VIRTUAL BANDS - BAND     11; K    1; EIG  4.1118915E-01 AU
 TTTTTTTTTTTTTTTTTTTTTTTTTTTTTT PDIG        TELAPSE        1.98 TCPU        1.34
 CHARGE NORMALIZATION FACTOR   1.00000000
 TOTAL ATOMIC CHARGES:
  10.0215392   9.9784608
 TTTTTTTTTTTTTTTTTTTTTTTTTTTTTT QGAM        TELAPSE        1.98 TCPU        1.34
 TTTTTTTTTTTTTTTTTTTTTTTTTTTTTT BIEL        TELAPSE        2.00 TCPU        1.36
 TTTTTTTTTTTTTTTTTTTTTTTTTTTTTT TOTENY      TELAPSE        2.00 TCPU        1.36
 CYC   5 ETOT(AU) -2.746639272934E+02 DETOT -2.42E-04 tst  9.92E-05 PX  2.03E-02
 TTTTTTTTTTTTTTTTTTTTTTTTTTTTTT FDIK        TELAPSE        2.00 TCPU        1.36
 INSULATING STATE
 TOP OF VALENCE BANDS -    BAND     10; K    1; EIG -3.0387308E-01 AU
 BOTTOM OF VIRTUAL BANDS - BAND     11; K    1; EIG  4.2268701E-01 AU
 TTTTTTTTTTTTTTTTTTTTTTTTTTTTTT PDIG        TELAPSE        2.00 TCPU        1.36
 CHARGE NORMALIZATION FACTOR   1.00000000
 TOTAL ATOMIC CHARGES:
  10.0223641   9.9776359
 TTTTTTTTTTTTTTTTTTTTTTTTTTTTTT QGAM        TELAPSE        2.01 TCPU        1.36
 TTTTTTTTTTTTTTTTTTTTTTTTTTTTTT BIEL        TELAPSE        2.02 TCPU        1.38
 TTTTTTTTTTTTTTTTTTTTTTTTTTTTTT TOTENY      TELAPSE        2.02 TCPU        1.38
 CYC   6 ETOT(AU) -2.746640242699E+02 DETOT -9.70E-05 tst  3.91E-05 PX  1.28E-02
 TTTTTTTTTTTTTTTTTTTTTTTTTTTTTT FDIK        TELAPSE        2.03 TCPU        1.38
 INSULATING STATE
 TOP OF VALENCE BANDS -    BAND     10; K    1; EIG -3.1492740E-01 AU
 BOTTOM OF VIRTUAL BANDS - BAND     11; K    1; EIG  4.1544734E-01 AU
 TTTTTTTTTTTTTTTTTTTTTTTTTTTTTT PDIG        TELAPSE        2.03 TCPU        1.39
 CHARGE NORMALIZATION FACTOR   1.00000000
 TOTAL ATOMIC CHARGES:
  10.0218224   9.9781776
 TTTTTTTTTTTTTTTTTTTTTTTTTTTTTT QGAM        TELAPSE        2.03 TCPU        1.39
 TTTTTTTTTTTTTTTTTTTTTTTTTTTTTT BIEL        TELAPSE        2.05 TCPU        1.40
 TTTTTTTTTTTTTTTTTTTTTTTTTTTTTT TOTENY      TELAPSE        2.05 TCPU        1.40
 CYC   7 ETOT(AU) -2.746640628643E+02 DETOT -3.86E-05 tst  1.58E-05 PX  8.11E-03
 TTTTTTTTTTTTTTTTTTTTTTTTTTTTTT FDIK        TELAPSE        2.05 TCPU        1.41
 INSULATING STATE
 TOP OF VALENCE BANDS -    BAND     10; K    1; EIG -3.0792396E-01 AU
 BOTTOM OF VIRTUAL BANDS - BAND     11; K    1; EIG  4.2004540E-01 AU
 TTTTTTTTTTTTTTTTTTTTTTTTTTTTTT PDIG        TELAPSE        2.05 TCPU        1.41
 CHARGE NORMALIZATION FACTOR   1.00000000
 TOTAL ATOMIC CHARGES:
  10.0221544   9.9778456
 TTTTTTTTTTTTTTTTTTTTTTTTTTTTTT QGAM        TELAPSE        2.05 TCPU        1.41
 TTTTTTTTTTTTTTTTTTTTTTTTTTTTTT BIEL        TELAPSE        2.07 TCPU        1.43
 TTTTTTTTTTTTTTTTTTTTTTTTTTTTTT TOTENY      TELAPSE        2.07 TCPU        1.43
 CYC   8 ETOT(AU) -2.746640786043E+02 DETOT -1.57E-05 tst  6.29E-06 PX  5.13E-03
 TTTTTTTTTTTTTTTTTTTTTTTTTTTTTT FDIK        TELAPSE        2.07 TCPU        1.43
 INSULATING STATE
 TOP OF VALENCE BANDS -    BAND     10; K    1; EIG -3.1234972E-01 AU
 BOTTOM OF VIRTUAL BANDS - BAND     11; K    1; EIG  4.1714358E-01 AU
 TTTTTTTTTTTTTTTTTTTTTTTTTTTTTT PDIG        TELAPSE        2.07 TCPU        1.43
 CHARGE NORMALIZATION FACTOR   1.00000000
 TOTAL ATOMIC CHARGES:
  10.0219369   9.9780631
 TTTTTTTTTTTTTTTTTTTTTTTTTTTTTT QGAM        TELAPSE        2.07 TCPU        1.43
 TTTTTTTTTTTTTTTTTTTTTTTTTTTTTT BIEL        TELAPSE        2.09 TCPU        1.45
 TTTTTTTTTTTTTTTTTTTTTTTTTTTTTT TOTENY      TELAPSE        2.09 TCPU        1.45
 CYC   9 ETOT(AU) -2.746640846400E+02 DETOT -6.04E-06 tst  2.52E-06 PX  3.25E-03
 TTTTTTTTTTTTTTTTTTTTTTTTTTTTTT FDIK        TELAPSE        2.09 TCPU        1.45
 INSULATING STATE
 TOP OF VALENCE BANDS -    BAND     10; K    1; EIG -3.0954501E-01 AU
 BOTTOM OF VIRTUAL BANDS - BAND     11; K    1; EIG  4.1898358E-01 AU
 TTTTTTTTTTTTTTTTTTTTTTTTTTTTTT PDIG        TELAPSE        2.10 TCPU        1.46
 CHARGE NORMALIZATION FACTOR   1.00000000
 TOTAL ATOMIC CHARGES:
  10.0220703   9.9779297
 TTTTTTTTTTTTTTTTTTTTTTTTTTTTTT QGAM        TELAPSE        2.10 TCPU        1.46
 TTTTTTTTTTTTTTTTTTTTTTTTTTTTTT BIEL        TELAPSE        2.11 TCPU        1.47
 TTTTTTTTTTTTTTTTTTTTTTTTTTTTTT TOTENY      TELAPSE        2.11 TCPU        1.47
 CYC  10 ETOT(AU) -2.746640872497E+02 DETOT -2.61E-06 tst  1.01E-06 PX  2.05E-03
 TTTTTTTTTTTTTTTTTTTTTTTTTTTTTT FDIK        TELAPSE        2.12 TCPU        1.48
 INSULATING STATE
 TOP OF VALENCE BANDS -    BAND     10; K    1; EIG -3.1131879E-01 AU
 BOTTOM OF VIRTUAL BANDS - BAND     11; K    1; EIG  4.1782024E-01 AU
 TTTTTTTTTTTTTTTTTTTTTTTTTTTTTT PDIG        TELAPSE        2.12 TCPU        1.48
 CHARGE NORMALIZATION FACTOR   1.00000000
 TOTAL ATOMIC CHARGES:
  10.0219837   9.9780163
 TTTTTTTTTTTTTTTTTTTTTTTTTTTTTT QGAM        TELAPSE        2.12 TCPU        1.48
 TTTTTTTTTTTTTTTTTTTTTTTTTTTTTT BIEL        TELAPSE        2.14 TCPU        1.50
 TTTTTTTTTTTTTTTTTTTTTTTTTTTTTT TOTENY      TELAPSE        2.14 TCPU        1.50
 CYC  11 ETOT(AU) -2.746640881638E+02 DETOT -9.14E-07 tst  4.05E-07 PX  1.30E-03
 TTTTTTTTTTTTTTTTTTTTTTTTTTTTTT FDIK        TELAPSE        2.14 TCPU        1.50
 INSULATING STATE
 TOP OF VALENCE BANDS -    BAND     10; K    1; EIG -3.1019553E-01 AU
 BOTTOM OF VIRTUAL BANDS - BAND     11; K    1; EIG  4.1855712E-01 AU
 TTTTTTTTTTTTTTTTTTTTTTTTTTTTTT PDIG        TELAPSE        2.14 TCPU        1.50
 CHARGE NORMALIZATION FACTOR   1.00000000
 TOTAL ATOMIC CHARGES:
  10.0220376   9.9779624
 TTTTTTTTTTTTTTTTTTTTTTTTTTTTTT QGAM        TELAPSE        2.14 TCPU        1.50
 TTTTTTTTTTTTTTTTTTTTTTTTTTTTTT BIEL        TELAPSE        2.16 TCPU        1.52
 +++ ENERGIES IN A.U. +++
 ::: EXT EL-POLE : L =  0                         -5.2833061635163E+02
 ::: EXT EL-POLE : L =  1                          4.4214947216389E-24
 ::: EXT EL-POLE : L =  2                          4.9794188980872E-20
 ::: EXT EL-POLE : L =  3                         -5.5461701259121E-25
 ::: EXT EL-POLE : L =  4                          4.2039299962837E-04
 ::: EXT EL-SPHEROPOLE                             3.9793536455556E+00
 ::: BIELET ZONE E-E                               5.7101891160428E+02
 ::: TOTAL E-E                                     4.6668069291204E+01
 ::: TOTAL E-N + N-E                              -5.2300922675741E+02
 ::: TOTAL N-N                                    -7.2962960590270E+01
 ::: KINETIC ENERGY                                2.7464002944181E+02
 ::: TOTAL   ENERGY                               -2.7466408861467E+02
 ::: VIRIAL COEFFICIENT                            9.9995620063264E-01
 TTTTTTTTTTTTTTTTTTTTTTTTTTTTTT TOTENY      TELAPSE        2.16 TCPU        1.52
 CYC  12 ETOT(AU) -2.746640886147E+02 DETOT -4.51E-07 tst  1.62E-07 PX  1.30E-03

 == SCF ENDED - CONVERGENCE ON ENERGY      E(AU) -2.7466408861467E+02 CYCLES  12

 TOTAL ENERGY(HF)(AU)(  12) -2.7466408861467E+02 DE-4.5E-07 tst 1.6E-07 PX 1.3E-03
 EIGENVECTORS IN FORTRAN UNIT  8
 TTTTTTTTTTTTTTTTTTTTTTTTTTTTTT END         TELAPSE        2.18 TCPU        1.54
 EEEEEEEEEE TERMINATION  DATE 10 09 2010 TIME 09:47:50.4
Fri Sep 10 09:47:50 BST 2010
Contents of temporary directory:
total 4260
-rw-r--r-- 1 pc229 pc229       0 2010-09-10 09:47 ERROR
-rw-r--r-- 1 pc229 pc229  149632 2010-09-10 09:47 fort.1
-rw-r--r-- 1 pc229 pc229   35040 2010-09-10 09:47 fort.10
-rw-r--r-- 1 pc229 pc229    9252 2010-09-10 09:47 fort.19
-rw-r--r-- 1 pc229 pc229 3217084 2010-09-10 09:47 fort.44
-rw-r--r-- 1 pc229 pc229  478940 2010-09-10 09:47 fort.55
-rw-r--r-- 1 pc229 pc229   35040 2010-09-10 09:47 fort.8
-rw-r--r-- 1 pc229 pc229  114940 2010-09-10 09:47 fort.9
-rw-r--r-- 1 pc229 pc229    8536 2010-09-10 09:47 fort.95
-rw-r--r-- 1 pc229 pc229  291818 2010-09-10 09:47 fort.98
wave function binary file /home/pc229/CUBE/MgO/MgO.f9
file fort.98 saved as /home/pc229/CUBE/MgO/MgO.f98
temporary directory /home/pc229/bin/CRYSTAL09_tmp/tmp14741_pc229 removed
