MGO BULK 
CRYSTAL
0 0 0
225
4.217
2
12 0.    0.    0.
8 0.5   0.5   0.5
OPTGEOM
FULLOPTG
END
END
12  3
0  0  8  2.  1.
68371.875      0.0002226
9699.34009    0.0018982
2041.176786   0.0110451
529.862906   0.0500627
159.186000   0.169123
54.6848     0.367031
21.2357     0.400410
8.74604    0.14987
0 1 6 8. 1.
156.795  -0.00624  0.00772
31.0339  -0.07882  0.06427
9.6453   -0.07992  0.2104
3.7109    0.29063  0.34314
1.61164   0.57164  0.3735
0.64294   0.30664  0.23286
0 1 1 0. 1.
0.4       1.       1.
8 3
0 0 8 2. 1.
4000.    0.00144
1355.58  0.00764
248.545  0.05370
69.5339  0.16818
23.8868  0.36039
9.27593  0.38612
3.82034  0.14712
1.23514  0.07105
0 1 5 8. 1.
52.1878 -0.00873  0.00922
10.3293 -0.08979  0.07068
3.21034 -0.04079  0.20433
1.23514  0.37666  0.34958
0.536420 0.42248  0.27774
0 1 1 0. 1.
0.210000 1.  1.
99 0
END
SHRINK
4 4
FMIXING
30
END

         
 *******************************************************************************
 *                                                                             *
 *                                CRYSTAL06                                    *
 *                              Release : 1.0                                  *
 *                           V1.0.1                                            *
 *                                                                             *
 *                                                                             *
 *                                                                             *
 *                              MAIN AUTHORS                                   *
 *                                                                             *
 *        R. DOVESI(1), V.R. SAUNDERS(2), C. ROETTI(1), R. ORLANDO (1,3),      *
 *     C.M. ZICOVICH-WILSON(1,4), F. PASCALE(5), B. CIVALLERI(1), K. DOLL(6),  *
 *        N.M. HARRISON(2,7), I. J. BUSH(2), Ph. D'ARCO(8), M. LLUNELL(9)      *
 *                                                                             *
 * (1) THEORETICAL CHEMISTRY GROUP - UNIVERSITA' DI TORINO - TORINO (ITALY)    *
 *      http://www.crystal.unito.it                                            *
 * (2) COMPUTATIONAL SCIENCE & ENGINEERING DEPARTMENT - CCLRC DARESBURY (UK)   *
 *     http://www.cse.clrc.ac.uk/cmg/CRYSTAL/                                  *
 * (3) UNIVERSITA' DEL PIEMONTE ORIENTALE - ALESSANDRIA (ITALY)                *
 * (4) UNIVERSIDAD AUTONOMA DEL ESTADO DE MORELOS - CUERNAVACA (MEXICO)        *
 * (5) UNIVERSITE' HENRI POINCARE' - NANCY (FRANCE)                            *
 * (6) TU BRAUNSCHWEIG - BRAUNSCHWEIG (GERMANY)                                *
 * (7) IMPERIAL COLLEGE - LONDON (UK)                                          *
 * (8) UNIVERSITE' PIERRE ET MARIE CURIE - PARIS (FRANCE)                      *
 * (9) UNIVERSIDAD DE BARCELONA - BARCELONA (SPAIN)                            *
 *******************************************************************************
 EEEEEEEEEE STARTING  DATE 15 02 2010 TIME 18:15:22.7
 MGO BULK                                                                        

 CRYSTAL CALCULATION
 (INPUT ACCORDING TO THE INTERNATIONAL TABLES FOR X-RAY CRYSTALLOGRAPHY)
 CRYSTAL FAMILY                       :  CUBIC       
 CRYSTAL CLASS  (GROTH - 1921)        :  CUBIC HEXAKISOCTAHEDRAL              

 SPACE GROUP (CENTROSYMMETRIC)        :  F M 3 M         

 LATTICE PARAMETERS  (ANGSTROMS AND DEGREES) - CONVENTIONAL CELL
        A           B           C        ALPHA        BETA       GAMMA
     4.21700     4.21700     4.21700    90.00000    90.00000    90.00000


 NUMBER OF IRREDUCIBLE ATOMS IN THE CONVENTIONAL CELL:    2

 INPUT COORDINATES

 ATOM AT. N.              COORDINATES
   1  12     0.000000000000E+00  0.000000000000E+00  0.000000000000E+00
   2   8     5.000000000000E-01  5.000000000000E-01  5.000000000000E-01

 *******************************************************************************

 << INFORMATION >>: FROM NOW ON, ALL COORDINATES REFER TO THE PRIMITIVE CELL

 *******************************************************************************

 LATTICE PARAMETERS  (ANGSTROMS AND DEGREES) - PRIMITIVE CELL
       A          B          C         ALPHA     BETA     GAMMA        VOLUME
    2.98187    2.98187    2.98187    60.00000  60.00000  60.00000     18.747822

 COORDINATES OF THE EQUIVALENT ATOMS (FRACTIONARY UNITS)

 N. ATOM EQUIV AT. N.          X                  Y                  Z

   1   1   1   12 MG    0.00000000000E+00  0.00000000000E+00  0.00000000000E+00

   2   2   1    8 O    -5.00000000000E-01 -5.00000000000E-01 -5.00000000000E-01

 NUMBER OF SYMMETRY OPERATORS         :   48
 *******************************************************************************
 * GEOMETRY EDITING - INPUT COORDINATES ARE GIVEN IN ANGSTROM          
 *******************************************************************************

 GEOMETRY NOW FULLY CONSISTENT WITH THE GROUP
 *******************************************************************************
 COMBINED CELL/ATOM OPTIMIZATION CONTROL

 MAXIMUM GRADIENT COMPONENT   0.00045 MAXIMUM DISPLACEMENT COMPONENT     0.00030
 R.M.S. OF GRADIENT COMPONENT 0.00180 R.M.S. OF DISPLACEMENT COMPONENTS  0.00120
 THRESHOLD ON ENERGY CHANGE 0.100E-06 EXTRAPOLATING POLYNOMIAL ORDER           2
 MAXIMUM ALLOWED NUMBER OF STEPS  100 SORTING OF ENERGY POINTS:               NO
 ANALYTICAL  GRADIENT                 HESSIAN UPDATING                      BFGS
 STEP SIZE NUMERICAL GRADIENT 0.00100
 INITIAL HESSIAN MATRIX: SCHLEGEL MODEL 2
 *******************************************************************************


 GCALCO - MAX INDICES DIRECT LATTICE VECTOR  10  10  10
 NO.OF VECTORS CREATED 2999 STARS   59 RMAX    44.72576 BOHR

 GEOMETRY FOR WAVE FUNCTION - DIMENSIONALITY OF THE SYSTEM    3
 (NON PERIODIC DIRECTION: LATTICE PARAMETER FORMALLY SET TO 500)
 *******************************************************************************
 LATTICE PARAMETERS (ANGSTROMS AND DEGREES) - BOHR = 0.5291772083 ANGSTROM
 PRIMITIVE CELL - CENTRING CODE 5/0 VOLUME=    18.747822 - DENSITY 3.541 g/cm^3
         A              B              C           ALPHA      BETA       GAMMA 
     2.98186930     2.98186930     2.98186930    60.000000  60.000000  60.000000
 *******************************************************************************
 ATOMS IN THE ASYMMETRIC UNIT    2 - ATOMS IN THE UNIT CELL:    2
     ATOM              X/A                 Y/B                 Z/C    
 *******************************************************************************
   1 T  12 MG    0.000000000000E+00  0.000000000000E+00  0.000000000000E+00
   2 T   8 O    -5.000000000000E-01 -5.000000000000E-01 -5.000000000000E-01

 TRANSFORMATION MATRIX PRIMITIVE-CRYSTALLOGRAPHIC CELL
 -1.0000  1.0000  1.0000  1.0000 -1.0000  1.0000  1.0000  1.0000 -1.0000

 *******************************************************************************
 CRYSTALLOGRAPHIC CELL (VOLUME=         74.99128631)
         A              B              C           ALPHA      BETA       GAMMA 
     4.21700000     4.21700000     4.21700000    90.000000  90.000000  90.000000

 COORDINATES IN THE CRYSTALLOGRAPHIC CELL
     ATOM              X/A                 Y/B                 Z/C    
 *******************************************************************************
   1 T  12 MG    0.000000000000E+00  0.000000000000E+00  0.000000000000E+00
   2 T   8 O    -5.000000000000E-01 -5.000000000000E-01 -5.000000000000E-01

 T = ATOM BELONGING TO THE ASYMMETRIC UNIT

 ****  48 SYMMOPS - TRANSLATORS IN FRACTIONARY UNITS
  V INV                   ROTATION MATRICES                       TRANSLATOR
  1  1  1.00  0.00  0.00  0.00  1.00  0.00  0.00  0.00  1.00    0.00  0.00  0.00
  2  2  0.00  1.00  0.00  1.00  0.00  0.00 -1.00 -1.00 -1.00    0.00  0.00  0.00
  3  3 -1.00 -1.00 -1.00  0.00  0.00  1.00  0.00  1.00  0.00    0.00  0.00  0.00
  4  4  0.00  0.00  1.00 -1.00 -1.00 -1.00  1.00  0.00  0.00    0.00  0.00  0.00
  5  6  0.00  0.00  1.00  1.00  0.00  0.00  0.00  1.00  0.00    0.00  0.00  0.00
  6  5  0.00  1.00  0.00  0.00  0.00  1.00  1.00  0.00  0.00    0.00  0.00  0.00
  7  8  1.00  0.00  0.00  0.00  0.00  1.00 -1.00 -1.00 -1.00    0.00  0.00  0.00
  8  7  1.00  0.00  0.00 -1.00 -1.00 -1.00  0.00  1.00  0.00    0.00  0.00  0.00
  9 10 -1.00 -1.00 -1.00  0.00  1.00  0.00  1.00  0.00  0.00    0.00  0.00  0.00
 10  9  0.00  0.00  1.00  0.00  1.00  0.00 -1.00 -1.00 -1.00    0.00  0.00  0.00
 11 12  0.00  1.00  0.00 -1.00 -1.00 -1.00  0.00  0.00  1.00    0.00  0.00  0.00
 12 11 -1.00 -1.00 -1.00  1.00  0.00  0.00  0.00  0.00  1.00    0.00  0.00  0.00
 13 13  0.00 -1.00  0.00 -1.00  0.00  0.00  0.00  0.00 -1.00    0.00  0.00  0.00
 14 14 -1.00  0.00  0.00  0.00 -1.00  0.00  1.00  1.00  1.00    0.00  0.00  0.00
 15 16  0.00  0.00 -1.00  1.00  1.00  1.00  0.00 -1.00  0.00    0.00  0.00  0.00
 16 15  1.00  1.00  1.00  0.00  0.00 -1.00 -1.00  0.00  0.00    0.00  0.00  0.00
 17 17 -1.00  0.00  0.00  0.00  0.00 -1.00  0.00 -1.00  0.00    0.00  0.00  0.00
 18 18  0.00  0.00 -1.00  0.00 -1.00  0.00 -1.00  0.00  0.00    0.00  0.00  0.00
 19 21  0.00  0.00 -1.00 -1.00  0.00  0.00  1.00  1.00  1.00    0.00  0.00  0.00
 20 22  1.00  1.00  1.00 -1.00  0.00  0.00  0.00 -1.00  0.00    0.00  0.00  0.00
 21 19  0.00 -1.00  0.00  1.00  1.00  1.00 -1.00  0.00  0.00    0.00  0.00  0.00
 22 20  0.00 -1.00  0.00  0.00  0.00 -1.00  1.00  1.00  1.00    0.00  0.00  0.00
 23 23  1.00  1.00  1.00  0.00 -1.00  0.00  0.00  0.00 -1.00    0.00  0.00  0.00
 24 24 -1.00  0.00  0.00  1.00  1.00  1.00  0.00  0.00 -1.00    0.00  0.00  0.00
 25 25 -1.00  0.00  0.00  0.00 -1.00  0.00  0.00  0.00 -1.00    0.00  0.00  0.00
 26 26  0.00 -1.00  0.00 -1.00  0.00  0.00  1.00  1.00  1.00    0.00  0.00  0.00
 27 27  1.00  1.00  1.00  0.00  0.00 -1.00  0.00 -1.00  0.00    0.00  0.00  0.00
 28 28  0.00  0.00 -1.00  1.00  1.00  1.00 -1.00  0.00  0.00    0.00  0.00  0.00
 29 30  0.00  0.00 -1.00 -1.00  0.00  0.00  0.00 -1.00  0.00    0.00  0.00  0.00
 30 29  0.00 -1.00  0.00  0.00  0.00 -1.00 -1.00  0.00  0.00    0.00  0.00  0.00
 31 32 -1.00  0.00  0.00  0.00  0.00 -1.00  1.00  1.00  1.00    0.00  0.00  0.00
 32 31 -1.00  0.00  0.00  1.00  1.00  1.00  0.00 -1.00  0.00    0.00  0.00  0.00
 33 34  1.00  1.00  1.00  0.00 -1.00  0.00 -1.00  0.00  0.00    0.00  0.00  0.00
 34 33  0.00  0.00 -1.00  0.00 -1.00  0.00  1.00  1.00  1.00    0.00  0.00  0.00
 35 36  0.00 -1.00  0.00  1.00  1.00  1.00  0.00  0.00 -1.00    0.00  0.00  0.00
 36 35  1.00  1.00  1.00 -1.00  0.00  0.00  0.00  0.00 -1.00    0.00  0.00  0.00
 37 37  0.00  1.00  0.00  1.00  0.00  0.00  0.00  0.00  1.00    0.00  0.00  0.00
 38 38  1.00  0.00  0.00  0.00  1.00  0.00 -1.00 -1.00 -1.00    0.00  0.00  0.00
 39 40  0.00  0.00  1.00 -1.00 -1.00 -1.00  0.00  1.00  0.00    0.00  0.00  0.00
 40 39 -1.00 -1.00 -1.00  0.00  0.00  1.00  1.00  0.00  0.00    0.00  0.00  0.00
 41 41  1.00  0.00  0.00  0.00  0.00  1.00  0.00  1.00  0.00    0.00  0.00  0.00
 42 42  0.00  0.00  1.00  0.00  1.00  0.00  1.00  0.00  0.00    0.00  0.00  0.00
 43 45  0.00  0.00  1.00  1.00  0.00  0.00 -1.00 -1.00 -1.00    0.00  0.00  0.00
 44 46 -1.00 -1.00 -1.00  1.00  0.00  0.00  0.00  1.00  0.00    0.00  0.00  0.00
 45 43  0.00  1.00  0.00 -1.00 -1.00 -1.00  1.00  0.00  0.00    0.00  0.00  0.00
 46 44  0.00  1.00  0.00  0.00  0.00  1.00 -1.00 -1.00 -1.00    0.00  0.00  0.00
 47 47 -1.00 -1.00 -1.00  0.00  1.00  0.00  0.00  0.00  1.00    0.00  0.00  0.00
 48 48  1.00  0.00  0.00 -1.00 -1.00 -1.00  0.00  0.00  1.00    0.00  0.00  0.00

 DIRECT LATTICE VECTORS CARTESIAN COMPONENTS (ANGSTROM)
          X                    Y                    Z
   0.000000000000E+00   0.210850000000E+01   0.210850000000E+01
   0.210850000000E+01   0.000000000000E+00   0.210850000000E+01
   0.210850000000E+01   0.210850000000E+01   0.000000000000E+00


 CARTESIAN COORDINATES - PRIMITIVE CELL
 *******************************************************************************
 *      ATOM          X(ANGSTROM)         Y(ANGSTROM)         Z(ANGSTROM)
 *******************************************************************************
   1    12 MG    0.000000000000E+00  0.000000000000E+00  0.000000000000E+00
   2     8 O     2.108500000000E+00  2.108500000000E+00  2.108500000000E+00

 *******************************************************************************
 LOCAL ATOMIC FUNCTIONS BASIS SET
 *******************************************************************************
   ATOM  X(AU)  Y(AU)  Z(AU)    NO. TYPE  EXPONENT  S COEF   P COEF   D/F/G COEF
 *******************************************************************************
   1 MG  0.000  0.000  0.000
                                  1 S  
                                         6.837E+04 2.226E-04 0.000E+00 0.000E+00
                                         9.699E+03 1.898E-03 0.000E+00 0.000E+00
                                         2.041E+03 1.105E-02 0.000E+00 0.000E+00
                                         5.299E+02 5.006E-02 0.000E+00 0.000E+00
                                         1.592E+02 1.691E-01 0.000E+00 0.000E+00
                                         5.468E+01 3.670E-01 0.000E+00 0.000E+00
                                         2.124E+01 4.004E-01 0.000E+00 0.000E+00
                                         8.746E+00 1.499E-01 0.000E+00 0.000E+00
                             2-   5 SP 
                                         1.568E+02-6.240E-03 7.720E-03 0.000E+00
                                         3.103E+01-7.882E-02 6.427E-02 0.000E+00
                                         9.645E+00-7.992E-02 2.104E-01 0.000E+00
                                         3.711E+00 2.906E-01 3.431E-01 0.000E+00
                                         1.612E+00 5.716E-01 3.735E-01 0.000E+00
                                         6.429E-01 3.066E-01 2.329E-01 0.000E+00
                             6-   9 SP 
                                         4.000E-01 1.000E+00 1.000E+00 0.000E+00
   2 O   3.984  3.984  3.984
                                 10 S  
                                         4.000E+03 1.440E-03 0.000E+00 0.000E+00
                                         1.356E+03 7.640E-03 0.000E+00 0.000E+00
                                         2.485E+02 5.370E-02 0.000E+00 0.000E+00
                                         6.953E+01 1.682E-01 0.000E+00 0.000E+00
                                         2.389E+01 3.604E-01 0.000E+00 0.000E+00
                                         9.276E+00 3.861E-01 0.000E+00 0.000E+00
                                         3.820E+00 1.471E-01 0.000E+00 0.000E+00
                                         1.235E+00 7.105E-02 0.000E+00 0.000E+00
                            11-  14 SP 
                                         5.219E+01-8.730E-03 9.220E-03 0.000E+00
                                         1.033E+01-8.979E-02 7.068E-02 0.000E+00
                                         3.210E+00-4.079E-02 2.043E-01 0.000E+00
                                         1.235E+00 3.767E-01 3.496E-01 0.000E+00
                                         5.364E-01 4.225E-01 2.777E-01 0.000E+00
                            15-  18 SP 
                                         2.100E-01 1.000E+00 1.000E+00 0.000E+00
 *******************************************************************************
 N. OF ATOMS PER CELL        2  COULOMB OVERLAP TOL         (T1) 10** -6
 NUMBER OF SHELLS            6  COULOMB PENETRATION TOL     (T2) 10** -6
 NUMBER OF AO               18  EXCHANGE OVERLAP TOL        (T3) 10** -6
 N. OF ELECTRONS PER CELL   20  EXCHANGE PSEUDO OVP (F(G))  (T4) 10** -6
 CORE ELECTRONS PER CELL    12  EXCHANGE PSEUDO OVP (P(G))  (T5) 10**-12
 N. OF SYMMETRY OPERATORS   48  POLE ORDER IN MONO ZONE                4
 *******************************************************************************
 TYPE OF CALCULATION :  RESTRICTED CLOSED SHELL
 HARTREE-FOCK HAMILTONIAN
 *******************************************************************************
 MAX NUMBER OF SCF CYCLES      50  CONVERGENCE ON DELTAP        10**-16
 WEIGHT OF F(I) IN F(I+1)      30% CONVERGENCE ON ENERGY        10**- 7
 SHRINK. FACT.(MONKH.)    4  4  4  NUMBER OF K POINTS IN THE IBZ      8
 SHRINKING FACTOR(GILAT NET)    4  NUMBER OF K POINTS(GILAT NET)      8
 *******************************************************************************
 *** K POINTS COORDINATES (OBLIQUE COORDINATES IN UNITS OF IS =  4)
   1-R(  0  0  0)   2-C(  1  0  0)   3-R(  2  0  0)   4-C(  1  1  0)
   5-C(  2  1  0)   6-C(  3  1  0)   7-R(  2  2  0)   8-C(  3  2  1)

 DIRECT LATTICE VECTORS COMPON. (A.U.)     RECIP. LATTICE VECTORS COMPON. (A.U.) 
        X            Y            Z              X            Y            Z
    0.0000000    3.9844876    3.9844876     -0.7884559    0.7884559    0.7884559
    3.9844876    0.0000000    3.9844876      0.7884559   -0.7884559    0.7884559
    3.9844876    3.9844876    0.0000000      0.7884559    0.7884559   -0.7884559

 DISK SPACE FOR EIGENVECTORS (FTN 10)       4212 REALS

 SYMMETRY ADAPTION OF THE BLOCH FUNCTIONS ENABLED

 DIMENSIONS  P(G)=   17290 F(G)=    3362 P(G),F(G) (IRR)     864
 MAX G-VECTOR INDEX FOR 1- AND 2-ELECTRON INTEGRALS 247

 INFORMATION **** GENBUF **** COULOMB BIPO BUFFER LENGTH (WORDS) =     79850
 TTTTTTTTTTTTTTTTTTTTTTTTTTTTTT INPUT       TELAPSE        0.03 TCPU        0.03

 NEIGHBORS OF THE NON-EQUIVALENT ATOMS

 N = NUMBER OF NEIGHBORS AT DISTANCE R
    ATOM  N     R/ANG      R/AU   NEIGHBORS (ATOM LABELS AND CELL INDICES)
   1 MG   6     2.1085     3.9845   2 O   -1 0 0   2 O    0-1 0   2 O    0 0-1
                                    2 O   -1-1 0   2 O   -1 0-1   2 O    0-1-1
   1 MG  12     2.9819     5.6349   1 MG  -1 0 0   1 MG   1 0 0   1 MG  -1 0 1
                                    1 MG   1 0-1   1 MG  -1 1 0   1 MG   1-1 0
                                    1 MG   0-1 0   1 MG   0 1 0   1 MG   0-1 1
                                    1 MG   0 1-1   1 MG   0 0-1   1 MG   0 0 1
   1 MG   8     3.6520     6.9013   2 O    0 0 0   2 O   -1-1 1   2 O   -1 1-1
                                    2 O    1-1-1   2 O   -2 0 0   2 O    0-2 0
                                    2 O    0 0-2   2 O   -1-1-1
   1 MG   6     4.2170     7.9690   1 MG  -1-1 1   1 MG   1 1-1   1 MG  -1 1-1
                                    1 MG   1-1 1   1 MG  -1 1 1   1 MG   1-1-1
   1 MG  24     4.7147     8.9096   2 O    1 0-1   2 O   -1 0 1   2 O    1-1 0
                                    2 O   -1 1 0   2 O    0 1-1   2 O    0-1 1
                                    2 O   -2 0 1   2 O   -2 1 0   2 O    1 0-2
                                    2 O    1-2 0   2 O    0-2 1   2 O    0 1-2
                                    2 O   -2-1 1   2 O   -2 1-1   2 O   -1-2 1
                                    2 O   -1 1-2   2 O    1-1-2   2 O    1-2-1
                                    2 O   -2-1 0   2 O   -2 0-1   2 O   -1-2 0
                                    2 O   -1 0-2   2 O    0-2-1   2 O    0-1-2
   1 MG  24     5.1647     9.7600   1 MG  -2 0 1   1 MG   2 0-1   1 MG  -2 1 0
                                    1 MG   2-1 0   1 MG  -2 1 1   1 MG   2-1-1
                                    1 MG  -1-1 0   1 MG   1 1 0   1 MG  -1-1 2
                                    1 MG   1 1-2   1 MG  -1 0-1   1 MG   1 0 1
                                    1 MG  -1 0 2   1 MG   1 0-2   1 MG  -1 2-1
                                    1 MG   1-2 1   1 MG  -1 2 0   1 MG   1-2 0
                                    1 MG   0-2 1   1 MG   0 2-1   1 MG   0-1-1
                                    1 MG   0 1 1   1 MG   0-1 2   1 MG   0 1-2

   2 O    6     2.1085     3.9845   1 MG   1 0 0   1 MG   0 1 0   1 MG   0 0 1
                                    1 MG   1 1 0   1 MG   1 0 1   1 MG   0 1 1
   2 O   12     2.9819     5.6349   2 O   -1 0 0   2 O    1 0 0   2 O   -1 0 1
                                    2 O    1 0-1   2 O   -1 1 0   2 O    1-1 0
                                    2 O    0-1 0   2 O    0 1 0   2 O    0-1 1
                                    2 O    0 1-1   2 O    0 0-1   2 O    0 0 1
   2 O    8     3.6520     6.9013   1 MG   0 0 0   1 MG   1 1-1   1 MG   1-1 1
                                    1 MG  -1 1 1   1 MG   2 0 0   1 MG   0 2 0
                                    1 MG   0 0 2   1 MG   1 1 1
   2 O    6     4.2170     7.9690   2 O   -1-1 1   2 O    1 1-1   2 O   -1 1-1
                                    2 O    1-1 1   2 O   -1 1 1   2 O    1-1-1
   2 O   24     4.7147     8.9096   1 MG  -1 0 1   1 MG   1 0-1   1 MG  -1 1 0
                                    1 MG   1-1 0   1 MG   0-1 1   1 MG   0 1-1
                                    1 MG   2 0-1   1 MG   2-1 0   1 MG  -1 0 2
                                    1 MG  -1 2 0   1 MG   0 2-1   1 MG   0-1 2
                                    1 MG   2 1-1   1 MG   2-1 1   1 MG   1 2-1
                                    1 MG   1-1 2   1 MG  -1 1 2   1 MG  -1 2 1
                                    1 MG   2 1 0   1 MG   2 0 1   1 MG   1 2 0
                                    1 MG   1 0 2   1 MG   0 2 1   1 MG   0 1 2
   2 O   24     5.1647     9.7600   2 O   -2 0 1   2 O    2 0-1   2 O   -2 1 0
                                    2 O    2-1 0   2 O   -2 1 1   2 O    2-1-1
                                    2 O   -1-1 0   2 O    1 1 0   2 O   -1-1 2
                                    2 O    1 1-2   2 O   -1 0-1   2 O    1 0 1
                                    2 O   -1 0 2   2 O    1 0-2   2 O   -1 2-1
                                    2 O    1-2 1   2 O   -1 2 0   2 O    1-2 0
                                    2 O    0-2 1   2 O    0 2-1   2 O    0-1-1
                                    2 O    0 1 1   2 O    0-1 2   2 O    0 1-2


 SYMMETRY ALLOWED ELASTIC DISTORTION 1
  0.5773503  0.0000000  0.0000000
  0.0000000  0.5773503  0.0000000
  0.0000000  0.0000000  0.5773503

 THERE ARE NO SYMMETRY ALLOWED DIRECTIONS
 WARNING **** INT_SCREEN **** CELL PARAMETERS OPTIMIZATION ONLY
 TTTTTTTTTTTTTTTTTTTTTTTTTTTTTT SYMM        TELAPSE        0.04 TCPU        0.03
 *******************************************************************************
 CELL OPTIMIZATION - POINT    1
 INFORMATION **** GENBUF **** COULOMB BIPO BUFFER LENGTH (WORDS) =     79850
 INFORMATION **** EXCBUF **** EXCH. BIPO BUFFER: WORDS USED =    102474
 TTTTTTTTTTTTTTTTTTTTTTTTTTTTTT MONIRR      TELAPSE        0.07 TCPU        0.06

  GAUSS70 FOR COULOMB   GAUSS70 FOR EXCHANGE
 **SHELL_ORTHODOX** SPACE FOR BIEL. INTEGRALS     1 BUFFERS
 TTTTTTTTTTTTTTTTTTTTTTTTTTTTTT SHLC        TELAPSE        1.68 TCPU        1.65
 TTTTTTTTTTTTTTTTTTTTTTTTTTTTTT MONMAD      TELAPSE        1.80 TCPU        1.76

 *******************************************************************************
 MGO BULK                                                                        
 CRYSTAL - SCF - TYPE OF CALCULATION :  RESTRICTED CLOSED SHELL
 *******************************************************************************
 TTTTTTTTTTTTTTTTTTTTTTTTTTTTTT SDIK        TELAPSE        1.80 TCPU        1.76

 AAAAAAAAAAAAAAAAAAAAAAAAAAAAAAAAAAAAAAAAAAAAAAAAAAAAAAAAAAAAAAAAAAAAAAAAAAAAAAA
         ATOMIC WAVEFUNCTION(S)


 NUCLEAR CHARGE 12.0  SYMMETRY SPECIES            S    P
 N. ELECTRONS   10.0  NUMBER OF PRIMITIVE GTOS   15    7
                      NUMBER OF CONTRACTED GTOS   3    2
                      NUMBER OF CLOSED SHELLS     2    1
                      OPEN SHELL OCCUPATION       0    0

  ZNUC SCFIT  TOTAL HF ENERGY   KINETIC ENERGY   VIRIAL THEOREM ACCURACY
  12.0   6   -1.988200719E+02  1.987325169E+02 -2.000440567E+00  1.3E-06

 NUCLEAR CHARGE  8.0  SYMMETRY SPECIES            S    P
 N. ELECTRONS   10.0  NUMBER OF PRIMITIVE GTOS   14    6
                      NUMBER OF CONTRACTED GTOS   3    2
                      NUMBER OF CLOSED SHELLS     2    1
                      OPEN SHELL OCCUPATION       0    0

  ZNUC SCFIT  TOTAL HF ENERGY   KINETIC ENERGY   VIRIAL THEOREM ACCURACY
   8.0  37   -7.429054355E+01  7.468454787E+01 -1.994724420E+00  4.5E-06

 AAAAAAAAAAAAAAAAAAAAAAAAAAAAAAAAAAAAAAAAAAAAAAAAAAAAAAAAAAAAAAAAAAAAAAAAAAAAAAA

 CHARGE NORMALIZATION FACTOR   1.00000000
 TOTAL ATOMIC CHARGES:
  10.0000000  10.0000000
 TTTTTTTTTTTTTTTTTTTTTTTTTTTTTT QGAM        TELAPSE        1.81 TCPU        1.78
 TTTTTTTTTTTTTTTTTTTTTTTTTTTTTT BIEL        TELAPSE        1.82 TCPU        1.79
 TTTTTTTTTTTTTTTTTTTTTTTTTTTTTT TOTENY      TELAPSE        1.83 TCPU        1.79
 CYC   0 ETOT(AU) -2.750851890564E+02 DETOT -2.75E+02 tst  0.00E+00 PX  1.00E+00
 TTTTTTTTTTTTTTTTTTTTTTTTTTTTTT FDIK        TELAPSE        1.83 TCPU        1.79
 INSULATING STATE - TOP OF VALENCE BANDS (A.U.) -3.4498580E-01
 TTTTTTTTTTTTTTTTTTTTTTTTTTTTTT PDIG        TELAPSE        1.83 TCPU        1.79
 CHARGE NORMALIZATION FACTOR   1.00000000
 TOTAL ATOMIC CHARGES:
  10.0164832   9.9835168
 TTTTTTTTTTTTTTTTTTTTTTTTTTTTTT QGAM        TELAPSE        1.83 TCPU        1.79
 TTTTTTTTTTTTTTTTTTTTTTTTTTTTTT BIEL        TELAPSE        1.85 TCPU        1.81
 TTTTTTTTTTTTTTTTTTTTTTTTTTTTTT TOTENY      TELAPSE        1.85 TCPU        1.81
 CYC   1 ETOT(AU) -2.746573807773E+02 DETOT  4.28E-01 tst  0.00E+00 PX  1.00E+00
 TTTTTTTTTTTTTTTTTTTTTTTTTTTTTT FDIK        TELAPSE        1.85 TCPU        1.81
 INSULATING STATE - TOP OF VALENCE BANDS (A.U.) -2.9170199E-01
 TTTTTTTTTTTTTTTTTTTTTTTTTTTTTT PDIG        TELAPSE        1.85 TCPU        1.81
 CHARGE NORMALIZATION FACTOR   1.00000000
 TOTAL ATOMIC CHARGES:
  10.0217624   9.9782376
 TTTTTTTTTTTTTTTTTTTTTTTTTTTTTT QGAM        TELAPSE        1.85 TCPU        1.81
 TTTTTTTTTTTTTTTTTTTTTTTTTTTTTT BIEL        TELAPSE        1.86 TCPU        1.83
 TTTTTTTTTTTTTTTTTTTTTTTTTTTTTT TOTENY      TELAPSE        1.86 TCPU        1.83
 CYC   2 ETOT(AU) -2.746638234706E+02 DETOT -6.44E-03 tst  8.10E-04 PX  5.95E-02
 TTTTTTTTTTTTTTTTTTTTTTTTTTTTTT FDIK        TELAPSE        1.87 TCPU        1.83
 INSULATING STATE - TOP OF VALENCE BANDS (A.U.) -3.0930744E-01
 TTTTTTTTTTTTTTTTTTTTTTTTTTTTTT PDIG        TELAPSE        1.87 TCPU        1.83
 CHARGE NORMALIZATION FACTOR   1.00000000
 TOTAL ATOMIC CHARGES:
  10.0216645   9.9783355
 TTTTTTTTTTTTTTTTTTTTTTTTTTTTTT QGAM        TELAPSE        1.87 TCPU        1.83
 TTTTTTTTTTTTTTTTTTTTTTTTTTTTTT BIEL        TELAPSE        1.89 TCPU        1.84
 TTTTTTTTTTTTTTTTTTTTTTTTTTTTTT TOTENY      TELAPSE        1.89 TCPU        1.84
 CYC   3 ETOT(AU) -2.746639755112E+02 DETOT -1.52E-04 tst  2.05E-05 PX  8.47E-03
 TTTTTTTTTTTTTTTTTTTTTTTTTTTTTT FDIK        TELAPSE        1.89 TCPU        1.84
 INSULATING STATE - TOP OF VALENCE BANDS (A.U.) -3.0975282E-01
 TTTTTTTTTTTTTTTTTTTTTTTTTTTTTT PDIG        TELAPSE        1.89 TCPU        1.84
 CHARGE NORMALIZATION FACTOR   1.00000000
 TOTAL ATOMIC CHARGES:
  10.0218395   9.9781605
 TTTTTTTTTTTTTTTTTTTTTTTTTTTTTT QGAM        TELAPSE        1.89 TCPU        1.84
 TTTTTTTTTTTTTTTTTTTTTTTTTTTTTT BIEL        TELAPSE        1.90 TCPU        1.86
 TTTTTTTTTTTTTTTTTTTTTTTTTTTTTT TOTENY      TELAPSE        1.91 TCPU        1.86
 CYC   4 ETOT(AU) -2.746639810252E+02 DETOT -5.51E-06 tst  7.16E-07 PX  2.64E-03
 TTTTTTTTTTTTTTTTTTTTTTTTTTTTTT FDIK        TELAPSE        1.91 TCPU        1.86
 INSULATING STATE - TOP OF VALENCE BANDS (A.U.) -3.1053957E-01
 TTTTTTTTTTTTTTTTTTTTTTTTTTTTTT PDIG        TELAPSE        1.91 TCPU        1.86
 CHARGE NORMALIZATION FACTOR   1.00000000
 TOTAL ATOMIC CHARGES:
  10.0218517   9.9781483
 TTTTTTTTTTTTTTTTTTTTTTTTTTTTTT QGAM        TELAPSE        1.91 TCPU        1.86
 TTTTTTTTTTTTTTTTTTTTTTTTTTTTTT BIEL        TELAPSE        1.92 TCPU        1.87
 TTTTTTTTTTTTTTTTTTTTTTTTTTTTTT TOTENY      TELAPSE        1.93 TCPU        1.87
 CYC   5 ETOT(AU) -2.746639812697E+02 DETOT -2.45E-07 tst  7.36E-08 PX  6.36E-04
 TTTTTTTTTTTTTTTTTTTTTTTTTTTTTT FDIK        TELAPSE        1.93 TCPU        1.87
 INSULATING STATE - TOP OF VALENCE BANDS (A.U.) -3.1067995E-01
 TTTTTTTTTTTTTTTTTTTTTTTTTTTTTT PDIG        TELAPSE        1.93 TCPU        1.87
 CHARGE NORMALIZATION FACTOR   1.00000000
 TOTAL ATOMIC CHARGES:
  10.0218542   9.9781458
 TTTTTTTTTTTTTTTTTTTTTTTTTTTTTT QGAM        TELAPSE        1.93 TCPU        1.87
 TTTTTTTTTTTTTTTTTTTTTTTTTTTTTT BIEL        TELAPSE        1.94 TCPU        1.89
 TTTTTTTTTTTTTTTTTTTTTTTTTTTTTT TOTENY      TELAPSE        1.94 TCPU        1.89
 CYC   6 ETOT(AU) -2.746639812247E+02 DETOT  4.50E-08 tst  1.50E-08 PX  4.04E-04
 TTTTTTTTTTTTTTTTTTTTTTTTTTTTTT FDIK        TELAPSE        1.95 TCPU        1.89
 INSULATING STATE - TOP OF VALENCE BANDS (A.U.) -3.1073527E-01
 TTTTTTTTTTTTTTTTTTTTTTTTTTTTTT PDIG        TELAPSE        1.95 TCPU        1.90
 CHARGE NORMALIZATION FACTOR   1.00000000
 TOTAL ATOMIC CHARGES:
  10.0218514   9.9781486
 TTTTTTTTTTTTTTTTTTTTTTTTTTTTTT QGAM        TELAPSE        1.95 TCPU        1.90
 TTTTTTTTTTTTTTTTTTTTTTTTTTTTTT BIEL        TELAPSE        1.96 TCPU        1.92
 +++ ENERGIES IN A.U. +++
 ::: EXT EL-POLE : L =  0                         -5.2826616223135E+02
 ::: EXT EL-POLE : L =  1                          4.7931906141236E-25
 ::: EXT EL-POLE : L =  2                          2.0248990835295E-20
 ::: EXT EL-POLE : L =  3                          1.7321612540150E-25
 ::: EXT EL-POLE : L =  4                          4.2083508283599E-04
 ::: EXT EL-SPHEROPOLE                             3.9785325465763E+00
 ::: BIELET ZONE E-E                               5.7095799122011E+02
 ::: TOTAL E-E                                     4.6670782370424E+01
 ::: TOTAL E-N + N-E                              -5.2301536712386E+02
 ::: TOTAL N-N                                    -7.2962960590270E+01
 ::: KINETIC ENERGY                                2.7464356415511E+02
 ::: TOTAL   ENERGY                               -2.7466398118859E+02
 ::: VIRIAL COEFFICIENT                            9.9996283132528E-01
 TTTTTTTTTTTTTTTTTTTTTTTTTTTTTT TOTENY      TELAPSE        1.96 TCPU        1.92
 CYC   7 ETOT(AU) -2.746639811886E+02 DETOT  3.62E-08 tst  3.21E-09 PX  4.04E-04

 == SCF ENDED - CONVERGENCE ON ENERGY      E(AU) -2.7466398118859E+02 CYCLES   7

 TOTAL ENERGY(HF)(AU)(   7) -2.7466398118859E+02 DE 3.6E-08 tst 3.2E-09 PX 4.0E-04

 *******************************************************************************
 *                             FORCE CALCULATION                               *
 *******************************************************************************

 INFORMATION **** EXCPOG **** EXCH. BIPO BUFFER LENGTH (WORDS) =    409896
 INFORMATION **** GENPOG **** BIPO BUFFER LENGTH (WORDS) =     26000
 TTTTTTTTTTTTTTTTTTTTTTTTTTTTTT SHELXG      TELAPSE       19.02 TCPU       18.94

 CARTESIAN FORCES (ANALYTICAL)
   ATOM                     X                   Y                   Z
   1  12             4.120105812004E-16  4.122274216349E-16  4.129451220755E-16
   2   8            -4.111432194624E-16 -4.122274216349E-16 -4.152580867101E-16

 RESULTANT FORCE     8.673617379884E-19  0.000000000000E+00 -2.312964634636E-18

ATOMIC PART

 THERE ARE NO SYMMETRY ALLOWED DIRECTIONS

CELL PART

 SYMMETRY ALLOWED FORCES (ANALYTICAL) (DIRECTION, FORCE)

    1 -2.5120044E-02
 TTTTTTTTTTTTTTTTTTTTTTTTTTTTTT TOTGRA      TELAPSE       20.03 TCPU       19.92
 *******************************************************************************
 LATTICE PARAMETERS (ANGSTROMS AND DEGREES) - BOHR = 0.5291772083 ANGSTROM
 PRIMITIVE CELL - CENTRING CODE 5/0 VOLUME=    18.747822 - DENSITY 3.541 g/cm^3
         A              B              C           ALPHA      BETA       GAMMA 
     2.98186930     2.98186930     2.98186930    60.000000  60.000000  60.000000
 *******************************************************************************
 ATOMS IN THE ASYMMETRIC UNIT    2 - ATOMS IN THE UNIT CELL:    2
     ATOM              X/A                 Y/B                 Z/C    
 *******************************************************************************
   1 T  12 MG    0.000000000000E+00  0.000000000000E+00  0.000000000000E+00
   2 T   8 O    -5.000000000000E-01 -5.000000000000E-01 -5.000000000000E-01

 TRANSFORMATION MATRIX PRIMITIVE-CRYSTALLOGRAPHIC CELL
 -1.0000  1.0000  1.0000  1.0000 -1.0000  1.0000  1.0000  1.0000 -1.0000

 *******************************************************************************
 CRYSTALLOGRAPHIC CELL (VOLUME=         74.99128631)
         A              B              C           ALPHA      BETA       GAMMA 
     4.21700000     4.21700000     4.21700000    90.000000  90.000000  90.000000

 COORDINATES IN THE CRYSTALLOGRAPHIC CELL
     ATOM              X/A                 Y/B                 Z/C    
 *******************************************************************************
   1 T  12 MG    0.000000000000E+00  0.000000000000E+00  0.000000000000E+00
   2 T   8 O    -5.000000000000E-01 -5.000000000000E-01 -5.000000000000E-01

 T = ATOM BELONGING TO THE ASYMMETRIC UNIT
 INFORMATION **** optc001 **** GEOMETRY OUTPUT FILE
 CLASSICAL MODEL (SCHLEGEL) USED AS INITIAL HESSIAN MATRIX
 REFERENCE GEOMETRY DEFINED

 MAX GRADIENT      0.025120  THRESHOLD              0.000450 CONVERGED NO
 RMS GRADIENT      0.025120  THRESHOLD              0.000300 CONVERGED NO

 GRADIENT NORM     0.025120  GRADIENT THRESHOLD     0.500000

 PREDICTED ENERGY CHANGE    -0.144E-04

 INITIAL DISPLACEMENTS
 -0.000623
 TTTTTTTTTTTTTTTTTTTTTTTTTTTTTT OPTI        TELAPSE       20.09 TCPU       19.92

 OPTOPTOPTOPTOPTOPTOPTOPTOPTOPTOPTOPTOPTOPTOPTOPTOPTOPTOPTOPTOPTOPTOPTOPTOPTOPT

 STARTING GEOMETRY OPTIMIZATION - INFORMATION ON SCF MOVED TO SCFOUT.LOG
 GEOMETRY OPTIMIZATION INFORMATION STORED IN OPTINFO.DAT

 OPTOPTOPTOPTOPTOPTOPTOPTOPTOPTOPTOPTOPTOPTOPTOPTOPTOPTOPTOPTOPTOPTOPTOPTOPTOPT
 *******************************************************************************
 CELL OPTIMIZATION - POINT    2
 *******************************************************************************
 LATTICE PARAMETERS (ANGSTROMS AND DEGREES) - BOHR = 0.5291772083 ANGSTROM
 PRIMITIVE CELL - CENTRING CODE 5/0 VOLUME=    18.727602 - DENSITY 3.545 g/cm^3
         A              B              C           ALPHA      BETA       GAMMA 
     2.98079691     2.98079691     2.98079691    60.000000  60.000000  60.000000
 *******************************************************************************
 ATOMS IN THE ASYMMETRIC UNIT    2 - ATOMS IN THE UNIT CELL:    2
     ATOM              X/A                 Y/B                 Z/C    
 *******************************************************************************
   1 T  12 MG    0.000000000000E+00  0.000000000000E+00  0.000000000000E+00
   2 T   8 O    -5.000000000000E-01 -5.000000000000E-01 -5.000000000000E-01

 TRANSFORMATION MATRIX PRIMITIVE-CRYSTALLOGRAPHIC CELL
 -1.0000  1.0000  1.0000  1.0000 -1.0000  1.0000  1.0000  1.0000 -1.0000

 *******************************************************************************
 CRYSTALLOGRAPHIC CELL (VOLUME=         74.91040697)
         A              B              C           ALPHA      BETA       GAMMA 
     4.21548342     4.21548342     4.21548342    90.000000  90.000000  90.000000

 COORDINATES IN THE CRYSTALLOGRAPHIC CELL
     ATOM              X/A                 Y/B                 Z/C    
 *******************************************************************************
   1 T  12 MG    0.000000000000E+00  0.000000000000E+00  0.000000000000E+00
   2 T   8 O    -5.000000000000E-01 -5.000000000000E-01 -5.000000000000E-01

 T = ATOM BELONGING TO THE ASYMMETRIC UNIT

 TOTAL ENERGY(HF)(AU)(   3) -2.7466399620172E+02     DE (AU)   -1.501E-05
 *******************************************************************************
 LATTICE PARAMETERS (ANGSTROMS AND DEGREES) - BOHR = 0.5291772083 ANGSTROM
 PRIMITIVE CELL - CENTRING CODE 5/0 VOLUME=    18.727602 - DENSITY 3.545 g/cm^3
         A              B              C           ALPHA      BETA       GAMMA 
     2.98079691     2.98079691     2.98079691    60.000000  60.000000  60.000000
 *******************************************************************************
 ATOMS IN THE ASYMMETRIC UNIT    2 - ATOMS IN THE UNIT CELL:    2
     ATOM              X/A                 Y/B                 Z/C    
 *******************************************************************************
   1 T  12 MG    0.000000000000E+00  0.000000000000E+00  0.000000000000E+00
   2 T   8 O    -5.000000000000E-01 -5.000000000000E-01 -5.000000000000E-01

 TRANSFORMATION MATRIX PRIMITIVE-CRYSTALLOGRAPHIC CELL
 -1.0000  1.0000  1.0000  1.0000 -1.0000  1.0000  1.0000  1.0000 -1.0000

 *******************************************************************************
 CRYSTALLOGRAPHIC CELL (VOLUME=         74.91040697)
         A              B              C           ALPHA      BETA       GAMMA 
     4.21548342     4.21548342     4.21548342    90.000000  90.000000  90.000000

 COORDINATES IN THE CRYSTALLOGRAPHIC CELL
     ATOM              X/A                 Y/B                 Z/C    
 *******************************************************************************
   1 T  12 MG    0.000000000000E+00  0.000000000000E+00  0.000000000000E+00
   2 T   8 O    -5.000000000000E-01 -5.000000000000E-01 -5.000000000000E-01

 T = ATOM BELONGING TO THE ASYMMETRIC UNIT
 INFORMATION **** optc002 **** GEOMETRY OUTPUT FILE

 SYMMETRY ALLOWED FORCES  (COORDINATE, FORCE)

    1 -2.4124112E-02

 GRADIENT NORM     0.024124  GRADIENT THRESHOLD     0.500000

 PREDICTED ENERGY CHANGE    -0.182E-03

 MAX GRADIENT      0.024124  THRESHOLD              0.000450 CONVERGED NO
 RMS GRADIENT      0.024124  THRESHOLD              0.000300 CONVERGED NO
 MAX DISPLAC.      0.015088  THRESHOLD              0.001800 CONVERGED NO
 RMS DISPLAC.      0.015088  THRESHOLD              0.001200 CONVERGED NO
 TTTTTTTTTTTTTTTTTTTTTTTTTTTTTT OPTI        TELAPSE       40.38 TCPU       39.92
 *******************************************************************************
 CELL OPTIMIZATION - POINT    3
 *******************************************************************************
 LATTICE PARAMETERS (ANGSTROMS AND DEGREES) - BOHR = 0.5291772083 ANGSTROM
 PRIMITIVE CELL - CENTRING CODE 5/0 VOLUME=    18.242427 - DENSITY 3.639 g/cm^3
         A              B              C           ALPHA      BETA       GAMMA 
     2.95483029     2.95483029     2.95483029    60.000000  60.000000  60.000000
 *******************************************************************************
 ATOMS IN THE ASYMMETRIC UNIT    2 - ATOMS IN THE UNIT CELL:    2
     ATOM              X/A                 Y/B                 Z/C    
 *******************************************************************************
   1 T  12 MG    0.000000000000E+00  0.000000000000E+00  0.000000000000E+00
   2 T   8 O    -5.000000000000E-01 -5.000000000000E-01 -5.000000000000E-01

 TRANSFORMATION MATRIX PRIMITIVE-CRYSTALLOGRAPHIC CELL
 -1.0000  1.0000  1.0000  1.0000 -1.0000  1.0000  1.0000  1.0000 -1.0000

 *******************************************************************************
 CRYSTALLOGRAPHIC CELL (VOLUME=         72.96970981)
         A              B              C           ALPHA      BETA       GAMMA 
     4.17876107     4.17876107     4.17876107    90.000000  90.000000  90.000000

 COORDINATES IN THE CRYSTALLOGRAPHIC CELL
     ATOM              X/A                 Y/B                 Z/C    
 *******************************************************************************
   1 T  12 MG    0.000000000000E+00  0.000000000000E+00  0.000000000000E+00
   2 T   8 O    -5.000000000000E-01 -5.000000000000E-01 -5.000000000000E-01

 T = ATOM BELONGING TO THE ASYMMETRIC UNIT

 TOTAL ENERGY(HF)(AU)(   5) -2.7466406370713E+02     DE (AU)   -6.751E-05
 *******************************************************************************
 LATTICE PARAMETERS (ANGSTROMS AND DEGREES) - BOHR = 0.5291772083 ANGSTROM
 PRIMITIVE CELL - CENTRING CODE 5/0 VOLUME=    18.242427 - DENSITY 3.639 g/cm^3
         A              B              C           ALPHA      BETA       GAMMA 
     2.95483029     2.95483029     2.95483029    60.000000  60.000000  60.000000
 *******************************************************************************
 ATOMS IN THE ASYMMETRIC UNIT    2 - ATOMS IN THE UNIT CELL:    2
     ATOM              X/A                 Y/B                 Z/C    
 *******************************************************************************
   1 T  12 MG    0.000000000000E+00  0.000000000000E+00  0.000000000000E+00
   2 T   8 O    -5.000000000000E-01 -5.000000000000E-01 -5.000000000000E-01

 TRANSFORMATION MATRIX PRIMITIVE-CRYSTALLOGRAPHIC CELL
 -1.0000  1.0000  1.0000  1.0000 -1.0000  1.0000  1.0000  1.0000 -1.0000

 *******************************************************************************
 CRYSTALLOGRAPHIC CELL (VOLUME=         72.96970981)
         A              B              C           ALPHA      BETA       GAMMA 
     4.17876107     4.17876107     4.17876107    90.000000  90.000000  90.000000

 COORDINATES IN THE CRYSTALLOGRAPHIC CELL
     ATOM              X/A                 Y/B                 Z/C    
 *******************************************************************************
   1 T  12 MG    0.000000000000E+00  0.000000000000E+00  0.000000000000E+00
   2 T   8 O    -5.000000000000E-01 -5.000000000000E-01 -5.000000000000E-01

 T = ATOM BELONGING TO THE ASYMMETRIC UNIT
 INFORMATION **** optc003 **** GEOMETRY OUTPUT FILE

 SYMMETRY ALLOWED FORCES  (COORDINATE, FORCE)

    1  1.4175641E-02

 GRADIENT NORM     0.014176  GRADIENT THRESHOLD     0.500000

 PREDICTED ENERGY CHANGE    -0.396E-04

 MAX GRADIENT      0.014176  THRESHOLD              0.000450 CONVERGED NO
 RMS GRADIENT      0.014176  THRESHOLD              0.000300 CONVERGED NO
 MAX DISPLAC.      0.005585  THRESHOLD              0.001800 CONVERGED NO
 RMS DISPLAC.      0.005585  THRESHOLD              0.001200 CONVERGED NO
 TTTTTTTTTTTTTTTTTTTTTTTTTTTTTT OPTI        TELAPSE       60.24 TCPU       59.75
 *******************************************************************************
 CELL OPTIMIZATION - POINT    4
 *******************************************************************************
 LATTICE PARAMETERS (ANGSTROMS AND DEGREES) - BOHR = 0.5291772083 ANGSTROM
 PRIMITIVE CELL - CENTRING CODE 5/0 VOLUME=    18.419452 - DENSITY 3.604 g/cm^3
         A              B              C           ALPHA      BETA       GAMMA 
     2.96435742     2.96435742     2.96435742    60.000000  60.000000  60.000000
 *******************************************************************************
 ATOMS IN THE ASYMMETRIC UNIT    2 - ATOMS IN THE UNIT CELL:    2
     ATOM              X/A                 Y/B                 Z/C    
 *******************************************************************************
   1 T  12 MG    0.000000000000E+00  0.000000000000E+00  0.000000000000E+00
   2 T   8 O    -5.000000000000E-01 -5.000000000000E-01 -5.000000000000E-01

 TRANSFORMATION MATRIX PRIMITIVE-CRYSTALLOGRAPHIC CELL
 -1.0000  1.0000  1.0000  1.0000 -1.0000  1.0000  1.0000  1.0000 -1.0000

 *******************************************************************************
 CRYSTALLOGRAPHIC CELL (VOLUME=         73.67780764)
         A              B              C           ALPHA      BETA       GAMMA 
     4.19223447     4.19223447     4.19223447    90.000000  90.000000  90.000000

 COORDINATES IN THE CRYSTALLOGRAPHIC CELL
     ATOM              X/A                 Y/B                 Z/C    
 *******************************************************************************
   1 T  12 MG    0.000000000000E+00  0.000000000000E+00  0.000000000000E+00
   2 T   8 O    -5.000000000000E-01 -5.000000000000E-01 -5.000000000000E-01

 T = ATOM BELONGING TO THE ASYMMETRIC UNIT

 TOTAL ENERGY(HF)(AU)(   5) -2.7466410605529E+02     DE (AU)   -4.235E-05
 *******************************************************************************
 LATTICE PARAMETERS (ANGSTROMS AND DEGREES) - BOHR = 0.5291772083 ANGSTROM
 PRIMITIVE CELL - CENTRING CODE 5/0 VOLUME=    18.419452 - DENSITY 3.604 g/cm^3
         A              B              C           ALPHA      BETA       GAMMA 
     2.96435742     2.96435742     2.96435742    60.000000  60.000000  60.000000
 *******************************************************************************
 ATOMS IN THE ASYMMETRIC UNIT    2 - ATOMS IN THE UNIT CELL:    2
     ATOM              X/A                 Y/B                 Z/C    
 *******************************************************************************
   1 T  12 MG    0.000000000000E+00  0.000000000000E+00  0.000000000000E+00
   2 T   8 O    -5.000000000000E-01 -5.000000000000E-01 -5.000000000000E-01

 TRANSFORMATION MATRIX PRIMITIVE-CRYSTALLOGRAPHIC CELL
 -1.0000  1.0000  1.0000  1.0000 -1.0000  1.0000  1.0000  1.0000 -1.0000

 *******************************************************************************
 CRYSTALLOGRAPHIC CELL (VOLUME=         73.67780764)
         A              B              C           ALPHA      BETA       GAMMA 
     4.19223447     4.19223447     4.19223447    90.000000  90.000000  90.000000

 COORDINATES IN THE CRYSTALLOGRAPHIC CELL
     ATOM              X/A                 Y/B                 Z/C    
 *******************************************************************************
   1 T  12 MG    0.000000000000E+00  0.000000000000E+00  0.000000000000E+00
   2 T   8 O    -5.000000000000E-01 -5.000000000000E-01 -5.000000000000E-01

 T = ATOM BELONGING TO THE ASYMMETRIC UNIT
 INFORMATION **** optc004 **** GEOMETRY OUTPUT FILE

 SYMMETRY ALLOWED FORCES  (COORDINATE, FORCE)

    1 -5.7116491E-04

 GRADIENT NORM     0.000571  GRADIENT THRESHOLD     0.500000

 PREDICTED ENERGY CHANGE    -0.618E-07

 MAX GRADIENT      0.000571  THRESHOLD              0.000450 CONVERGED NO
 RMS GRADIENT      0.000571  THRESHOLD              0.000300 CONVERGED NO
 MAX DISPLAC.      0.000216  THRESHOLD              0.001800 CONVERGED YES
 RMS DISPLAC.      0.000216  THRESHOLD              0.001200 CONVERGED YES
 TTTTTTTTTTTTTTTTTTTTTTTTTTTTTT OPTI        TELAPSE       80.16 TCPU       79.59
 *******************************************************************************
 CELL OPTIMIZATION - POINT    5
 *******************************************************************************
 LATTICE PARAMETERS (ANGSTROMS AND DEGREES) - BOHR = 0.5291772083 ANGSTROM
 PRIMITIVE CELL - CENTRING CODE 5/0 VOLUME=    18.412552 - DENSITY 3.606 g/cm^3
         A              B              C           ALPHA      BETA       GAMMA 
     2.96398723     2.96398723     2.96398723    60.000000  60.000000  60.000000
 *******************************************************************************
 ATOMS IN THE ASYMMETRIC UNIT    2 - ATOMS IN THE UNIT CELL:    2
     ATOM              X/A                 Y/B                 Z/C    
 *******************************************************************************
   1 T  12 MG    0.000000000000E+00  0.000000000000E+00  0.000000000000E+00
   2 T   8 O    -5.000000000000E-01 -5.000000000000E-01 -5.000000000000E-01

 TRANSFORMATION MATRIX PRIMITIVE-CRYSTALLOGRAPHIC CELL
 -1.0000  1.0000  1.0000  1.0000 -1.0000  1.0000  1.0000  1.0000 -1.0000

 *******************************************************************************
 CRYSTALLOGRAPHIC CELL (VOLUME=         73.65020840)
         A              B              C           ALPHA      BETA       GAMMA 
     4.19171095     4.19171095     4.19171095    90.000000  90.000000  90.000000

 COORDINATES IN THE CRYSTALLOGRAPHIC CELL
     ATOM              X/A                 Y/B                 Z/C    
 *******************************************************************************
   1 T  12 MG    0.000000000000E+00  0.000000000000E+00  0.000000000000E+00
   2 T   8 O    -5.000000000000E-01 -5.000000000000E-01 -5.000000000000E-01

 T = ATOM BELONGING TO THE ASYMMETRIC UNIT

 TOTAL ENERGY(HF)(AU)(   3) -2.7466410590177E+02     DE (AU)    1.535E-07
 *******************************************************************************
 LATTICE PARAMETERS (ANGSTROMS AND DEGREES) - BOHR = 0.5291772083 ANGSTROM
 PRIMITIVE CELL - CENTRING CODE 5/0 VOLUME=    18.412552 - DENSITY 3.606 g/cm^3
         A              B              C           ALPHA      BETA       GAMMA 
     2.96398723     2.96398723     2.96398723    60.000000  60.000000  60.000000
 *******************************************************************************
 ATOMS IN THE ASYMMETRIC UNIT    2 - ATOMS IN THE UNIT CELL:    2
     ATOM              X/A                 Y/B                 Z/C    
 *******************************************************************************
   1 T  12 MG    0.000000000000E+00  0.000000000000E+00  0.000000000000E+00
   2 T   8 O    -5.000000000000E-01 -5.000000000000E-01 -5.000000000000E-01

 TRANSFORMATION MATRIX PRIMITIVE-CRYSTALLOGRAPHIC CELL
 -1.0000  1.0000  1.0000  1.0000 -1.0000  1.0000  1.0000  1.0000 -1.0000

 *******************************************************************************
 CRYSTALLOGRAPHIC CELL (VOLUME=         73.65020840)
         A              B              C           ALPHA      BETA       GAMMA 
     4.19171095     4.19171095     4.19171095    90.000000  90.000000  90.000000

 COORDINATES IN THE CRYSTALLOGRAPHIC CELL
     ATOM              X/A                 Y/B                 Z/C    
 *******************************************************************************
   1 T  12 MG    0.000000000000E+00  0.000000000000E+00  0.000000000000E+00
   2 T   8 O    -5.000000000000E-01 -5.000000000000E-01 -5.000000000000E-01

 T = ATOM BELONGING TO THE ASYMMETRIC UNIT
 INFORMATION **** optc005 **** GEOMETRY OUTPUT FILE

 SYMMETRY ALLOWED FORCES  (COORDINATE, FORCE)

    1  1.7354920E-04

 GRADIENT NORM     0.000174  GRADIENT THRESHOLD     0.500000

 PREDICTED ENERGY CHANGE    -0.437E-08

 MAX GRADIENT      0.000174  THRESHOLD              0.000450 CONVERGED YES
 RMS GRADIENT      0.000174  THRESHOLD              0.000300 CONVERGED YES
 MAX DISPLAC.      0.000050  THRESHOLD              0.001800 CONVERGED YES
 RMS DISPLAC.      0.000050  THRESHOLD              0.001200 CONVERGED YES

 CONVERGENCE TESTS SATISFIED AFTER   5 ENERGY AND GRADIENT CALCULATIONS

 ******************************************************************
 * OPT END - CONVERGED * E(AU):  -2.746641059018E+02  POINTS    5 *
 ******************************************************************

 EIGENVECTORS IN FORTRAN UNIT 10

 NEIGHBORS OF THE NON-EQUIVALENT ATOMS

 N = NUMBER OF NEIGHBORS AT DISTANCE R
    ATOM  N     R/ANG      R/AU   NEIGHBORS (ATOM LABELS AND CELL INDICES)
   1 MG   6     2.0959     3.9606   2 O   -1 0 0   2 O    0-1 0   2 O    0 0-1
                                    2 O   -1-1 0   2 O   -1 0-1   2 O    0-1-1
   1 MG  12     2.9640     5.6011   1 MG  -1 0 0   1 MG   1 0 0   1 MG  -1 0 1
                                    1 MG   1 0-1   1 MG  -1 1 0   1 MG   1-1 0
                                    1 MG   0-1 0   1 MG   0 1 0   1 MG   0-1 1
                                    1 MG   0 1-1   1 MG   0 0-1   1 MG   0 0 1
   1 MG   8     3.6301     6.8599   2 O    0 0 0   2 O   -1-1 1   2 O   -1 1-1
                                    2 O    1-1-1   2 O   -2 0 0   2 O    0-2 0
                                    2 O    0 0-2   2 O   -1-1-1
   1 MG   6     4.1917     7.9212   1 MG  -1-1 1   1 MG   1 1-1   1 MG  -1 1-1
                                    1 MG   1-1 1   1 MG  -1 1 1   1 MG   1-1-1
   1 MG  24     4.6865     8.8562   2 O    1 0-1   2 O   -1 0 1   2 O    1-1 0
                                    2 O   -1 1 0   2 O    0 1-1   2 O    0-1 1
                                    2 O   -2 0 1   2 O   -2 1 0   2 O    1 0-2
                                    2 O    1-2 0   2 O    0-2 1   2 O    0 1-2
                                    2 O   -2-1 1   2 O   -2 1-1   2 O   -1-2 1
                                    2 O   -1 1-2   2 O    1-1-2   2 O    1-2-1
                                    2 O   -2-1 0   2 O   -2 0-1   2 O   -1-2 0
                                    2 O   -1 0-2   2 O    0-2-1   2 O    0-1-2
   1 MG  24     5.1338     9.7014   1 MG  -2 0 1   1 MG   2 0-1   1 MG  -2 1 0
                                    1 MG   2-1 0   1 MG  -2 1 1   1 MG   2-1-1
                                    1 MG  -1-1 0   1 MG   1 1 0   1 MG  -1-1 2
                                    1 MG   1 1-2   1 MG  -1 0-1   1 MG   1 0 1
                                    1 MG  -1 0 2   1 MG   1 0-2   1 MG  -1 2-1
                                    1 MG   1-2 1   1 MG  -1 2 0   1 MG   1-2 0
                                    1 MG   0-2 1   1 MG   0 2-1   1 MG   0-1-1
                                    1 MG   0 1 1   1 MG   0-1 2   1 MG   0 1-2

   2 O    6     2.0959     3.9606   1 MG   1 0 0   1 MG   0 1 0   1 MG   0 0 1
                                    1 MG   1 1 0   1 MG   1 0 1   1 MG   0 1 1
   2 O   12     2.9640     5.6011   2 O   -1 0 0   2 O    1 0 0   2 O   -1 0 1
                                    2 O    1 0-1   2 O   -1 1 0   2 O    1-1 0
                                    2 O    0-1 0   2 O    0 1 0   2 O    0-1 1
                                    2 O    0 1-1   2 O    0 0-1   2 O    0 0 1
   2 O    8     3.6301     6.8599   1 MG   0 0 0   1 MG   1 1-1   1 MG   1-1 1
                                    1 MG  -1 1 1   1 MG   2 0 0   1 MG   0 2 0
                                    1 MG   0 0 2   1 MG   1 1 1
   2 O    6     4.1917     7.9212   2 O   -1-1 1   2 O    1 1-1   2 O   -1 1-1
                                    2 O    1-1 1   2 O   -1 1 1   2 O    1-1-1
   2 O   24     4.6865     8.8562   1 MG  -1 0 1   1 MG   1 0-1   1 MG  -1 1 0
                                    1 MG   1-1 0   1 MG   0-1 1   1 MG   0 1-1
                                    1 MG   2 0-1   1 MG   2-1 0   1 MG  -1 0 2
                                    1 MG  -1 2 0   1 MG   0 2-1   1 MG   0-1 2
                                    1 MG   2 1-1   1 MG   2-1 1   1 MG   1 2-1
                                    1 MG   1-1 2   1 MG  -1 1 2   1 MG  -1 2 1
                                    1 MG   2 1 0   1 MG   2 0 1   1 MG   1 2 0
                                    1 MG   1 0 2   1 MG   0 2 1   1 MG   0 1 2
   2 O   24     5.1338     9.7014   2 O   -2 0 1   2 O    2 0-1   2 O   -2 1 0
                                    2 O    2-1 0   2 O   -2 1 1   2 O    2-1-1
                                    2 O   -1-1 0   2 O    1 1 0   2 O   -1-1 2
                                    2 O    1 1-2   2 O   -1 0-1   2 O    1 0 1
                                    2 O   -1 0 2   2 O    1 0-2   2 O   -1 2-1
                                    2 O    1-2 1   2 O   -1 2 0   2 O    1-2 0
                                    2 O    0-2 1   2 O    0 2-1   2 O    0-1-1
                                    2 O    0 1 1   2 O    0-1 2   2 O    0 1-2


 FINAL OPTIMIZED GEOMETRY - DIMENSIONALITY OF THE SYSTEM      3
 (NON PERIODIC DIRECTION: LATTICE PARAMETER FORMALLY SET TO 500)
 *******************************************************************************
 LATTICE PARAMETERS (ANGSTROMS AND DEGREES) - BOHR = 0.5291772083 ANGSTROM
 PRIMITIVE CELL - CENTRING CODE 5/0 VOLUME=    18.412552 - DENSITY 3.606 g/cm^3
         A              B              C           ALPHA      BETA       GAMMA 
     2.96398723     2.96398723     2.96398723    60.000000  60.000000  60.000000
 *******************************************************************************
 ATOMS IN THE ASYMMETRIC UNIT    2 - ATOMS IN THE UNIT CELL:    2
     ATOM              X/A                 Y/B                 Z/C    
 *******************************************************************************
   1 T  12 MG    0.000000000000E+00  0.000000000000E+00  0.000000000000E+00
   2 T   8 O    -5.000000000000E-01 -5.000000000000E-01 -5.000000000000E-01

 TRANSFORMATION MATRIX PRIMITIVE-CRYSTALLOGRAPHIC CELL
 -1.0000  1.0000  1.0000  1.0000 -1.0000  1.0000  1.0000  1.0000 -1.0000

 *******************************************************************************
 CRYSTALLOGRAPHIC CELL (VOLUME=         73.65020840)
         A              B              C           ALPHA      BETA       GAMMA 
     4.19171095     4.19171095     4.19171095    90.000000  90.000000  90.000000

 COORDINATES IN THE CRYSTALLOGRAPHIC CELL
     ATOM              X/A                 Y/B                 Z/C    
 *******************************************************************************
   1 T  12 MG    0.000000000000E+00  0.000000000000E+00  0.000000000000E+00
   2 T   8 O    -5.000000000000E-01 -5.000000000000E-01 -5.000000000000E-01

 T = ATOM BELONGING TO THE ASYMMETRIC UNIT
 INFORMATION **** fort.34 **** GEOMETRY OUTPUT FILE

 DIRECT LATTICE VECTORS CARTESIAN COMPONENTS (ANGSTROM)
          X                    Y                    Z
   0.000000000000E+00   0.209585547281E+01   0.209585547281E+01
   0.209585547281E+01   0.000000000000E+00   0.209585547281E+01
   0.209585547281E+01   0.209585547281E+01   0.000000000000E+00


 CARTESIAN COORDINATES - PRIMITIVE CELL
 *******************************************************************************
 *      ATOM          X(ANGSTROM)         Y(ANGSTROM)         Z(ANGSTROM)
 *******************************************************************************
   1    12 MG    0.000000000000E+00  0.000000000000E+00  0.000000000000E+00
   2     8 O     2.095855472807E+00  2.095855472807E+00  2.095855472807E+00

 ****  48 SYMMOPS - TRANSLATORS IN FRACTIONARY UNITS
  V INV                   ROTATION MATRICES                       TRANSLATOR
  1  1  1.00  0.00  0.00  0.00  1.00  0.00  0.00  0.00  1.00    0.00  0.00  0.00
  2  2  0.00  1.00  0.00  1.00  0.00  0.00 -1.00 -1.00 -1.00    0.00  0.00  0.00
  3  3 -1.00 -1.00 -1.00  0.00  0.00  1.00  0.00  1.00  0.00    0.00  0.00  0.00
  4  4  0.00  0.00  1.00 -1.00 -1.00 -1.00  1.00  0.00  0.00    0.00  0.00  0.00
  5  6  0.00  0.00  1.00  1.00  0.00  0.00  0.00  1.00  0.00    0.00  0.00  0.00
  6  5  0.00  1.00  0.00  0.00  0.00  1.00  1.00  0.00  0.00    0.00  0.00  0.00
  7  8  1.00  0.00  0.00  0.00  0.00  1.00 -1.00 -1.00 -1.00    0.00  0.00  0.00
  8  7  1.00  0.00  0.00 -1.00 -1.00 -1.00  0.00  1.00  0.00    0.00  0.00  0.00
  9 10 -1.00 -1.00 -1.00  0.00  1.00  0.00  1.00  0.00  0.00    0.00  0.00  0.00
 10  9  0.00  0.00  1.00  0.00  1.00  0.00 -1.00 -1.00 -1.00    0.00  0.00  0.00
 11 12  0.00  1.00  0.00 -1.00 -1.00 -1.00  0.00  0.00  1.00    0.00  0.00  0.00
 12 11 -1.00 -1.00 -1.00  1.00  0.00  0.00  0.00  0.00  1.00    0.00  0.00  0.00
 13 13  0.00 -1.00  0.00 -1.00  0.00  0.00  0.00  0.00 -1.00    0.00  0.00  0.00
 14 14 -1.00  0.00  0.00  0.00 -1.00  0.00  1.00  1.00  1.00    0.00  0.00  0.00
 15 16  0.00  0.00 -1.00  1.00  1.00  1.00  0.00 -1.00  0.00    0.00  0.00  0.00
 16 15  1.00  1.00  1.00  0.00  0.00 -1.00 -1.00  0.00  0.00    0.00  0.00  0.00
 17 17 -1.00  0.00  0.00  0.00  0.00 -1.00  0.00 -1.00  0.00    0.00  0.00  0.00
 18 18  0.00  0.00 -1.00  0.00 -1.00  0.00 -1.00  0.00  0.00    0.00  0.00  0.00
 19 21  0.00  0.00 -1.00 -1.00  0.00  0.00  1.00  1.00  1.00    0.00  0.00  0.00
 20 22  1.00  1.00  1.00 -1.00  0.00  0.00  0.00 -1.00  0.00    0.00  0.00  0.00
 21 19  0.00 -1.00  0.00  1.00  1.00  1.00 -1.00  0.00  0.00    0.00  0.00  0.00
 22 20  0.00 -1.00  0.00  0.00  0.00 -1.00  1.00  1.00  1.00    0.00  0.00  0.00
 23 23  1.00  1.00  1.00  0.00 -1.00  0.00  0.00  0.00 -1.00    0.00  0.00  0.00
 24 24 -1.00  0.00  0.00  1.00  1.00  1.00  0.00  0.00 -1.00    0.00  0.00  0.00
 25 25 -1.00  0.00  0.00  0.00 -1.00  0.00  0.00  0.00 -1.00    0.00  0.00  0.00
 26 26  0.00 -1.00  0.00 -1.00  0.00  0.00  1.00  1.00  1.00    0.00  0.00  0.00
 27 27  1.00  1.00  1.00  0.00  0.00 -1.00  0.00 -1.00  0.00    0.00  0.00  0.00
 28 28  0.00  0.00 -1.00  1.00  1.00  1.00 -1.00  0.00  0.00    0.00  0.00  0.00
 29 30  0.00  0.00 -1.00 -1.00  0.00  0.00  0.00 -1.00  0.00    0.00  0.00  0.00
 30 29  0.00 -1.00  0.00  0.00  0.00 -1.00 -1.00  0.00  0.00    0.00  0.00  0.00
 31 32 -1.00  0.00  0.00  0.00  0.00 -1.00  1.00  1.00  1.00    0.00  0.00  0.00
 32 31 -1.00  0.00  0.00  1.00  1.00  1.00  0.00 -1.00  0.00    0.00  0.00  0.00
 33 34  1.00  1.00  1.00  0.00 -1.00  0.00 -1.00  0.00  0.00    0.00  0.00  0.00
 34 33  0.00  0.00 -1.00  0.00 -1.00  0.00  1.00  1.00  1.00    0.00  0.00  0.00
 35 36  0.00 -1.00  0.00  1.00  1.00  1.00  0.00  0.00 -1.00    0.00  0.00  0.00
 36 35  1.00  1.00  1.00 -1.00  0.00  0.00  0.00  0.00 -1.00    0.00  0.00  0.00
 37 37  0.00  1.00  0.00  1.00  0.00  0.00  0.00  0.00  1.00    0.00  0.00  0.00
 38 38  1.00  0.00  0.00  0.00  1.00  0.00 -1.00 -1.00 -1.00    0.00  0.00  0.00
 39 40  0.00  0.00  1.00 -1.00 -1.00 -1.00  0.00  1.00  0.00    0.00  0.00  0.00
 40 39 -1.00 -1.00 -1.00  0.00  0.00  1.00  1.00  0.00  0.00    0.00  0.00  0.00
 41 41  1.00  0.00  0.00  0.00  0.00  1.00  0.00  1.00  0.00    0.00  0.00  0.00
 42 42  0.00  0.00  1.00  0.00  1.00  0.00  1.00  0.00  0.00    0.00  0.00  0.00
 43 45  0.00  0.00  1.00  1.00  0.00  0.00 -1.00 -1.00 -1.00    0.00  0.00  0.00
 44 46 -1.00 -1.00 -1.00  1.00  0.00  0.00  0.00  1.00  0.00    0.00  0.00  0.00
 45 43  0.00  1.00  0.00 -1.00 -1.00 -1.00  1.00  0.00  0.00    0.00  0.00  0.00
 46 44  0.00  1.00  0.00  0.00  0.00  1.00 -1.00 -1.00 -1.00    0.00  0.00  0.00
 47 47 -1.00 -1.00 -1.00  0.00  1.00  0.00  0.00  0.00  1.00    0.00  0.00  0.00
 48 48  1.00  0.00  0.00 -1.00 -1.00 -1.00  0.00  0.00  1.00    0.00  0.00  0.00
 TTTTTTTTTTTTTTTTTTTTTTTTTTTTTT END         TELAPSE      100.77 TCPU       99.76
 EEEEEEEEEE TERMINATION  DATE 15 02 2010 TIME 18:17:03.5
