date Fri Mar 18 06:24:14 GMT 2011
hostname Pieremanueles-MacBook-Pro.local
system Darwin Pieremanueles-MacBook-Pro.local 10.6.0 Darwin Kernel Version 10.6.0: Wed Nov 10 18:13:17 PST 2010; root:xnu-1504.9.26~3/RELEASE_I386 i386
user pieremanuelecanepa
output data in /Users/pieremanuelecanepa/PhD-Kent/Counts/CRY/Nanoparticles_Fe2O3/CRY_tests/nano8nm.out
crystal executable in /Users/pieremanuelecanepa/bin/CRYSTAL09/bin/Mac-intel/v_1_0_1
input data in /Users/pieremanuelecanepa/PhD-Kent/Counts/CRY/Nanoparticles_Fe2O3/CRY_tests/nano8nm.d12
temporary directory /Users/pieremanuelecanepa/CRYSTAL09_tmp/tmp1719_pieremanuelecanepa
external geometry input from /Users/pieremanuelecanepa/PhD-Kent/Counts/CRY/Nanoparticles_Fe2O3/CRY_tests/nano8nm.gui
external geometry input saved in /Users/pieremanuelecanepa/PhD-Kent/Counts/CRY/Nanoparticles_Fe2O3/CRY_tests/nano8nm_inp.gui
TEST nanoparticle 5nm from hematite bulk B40LYP
EXTERNAL
SUPERCELL
4 0 0
0 4 0
0 0 4
CLUSTER
.5 .5 .5
240
8
0 
0
0
END
26 7
0 0 8 2.0  1.0
 315379.0      0.000227
  45690.0      0.0019
   9677.3      0.0111
   2520.88     0.0501
    759.746    0.1705
    262.964    0.36924
    102.801    0.4033
     42.9733   0.1434
0 1 6 8.0 1.0
    798.262   -0.0052   0.00850
    191.162   -0.068    0.0608
     63.6885  -0.1314   0.2114
     25.3625   0.2517   0.3944
     10.7338   0.6433   0.398
      3.764    0.2825   0.2251
0 1 4 8.0 1.0
     48.1434   0.0122  -0.0215
     17.4579  -0.2278  -0.085
      6.9972  -0.8801   0.201
      3.0791   0.9755   1.3024
0 1 1 0.0 1.0
      1.3137   1.0      1.0
0 1 1 0.0 1.0
      0.5625   1.0      1.0
0 3 4 5.0 1.0
     30.4821   0.0583
      8.692    0.2591
      3.1008   0.5162
      1.1709   0.5656
0 3 1 0.0 1.0
      0.4345   1.0   
8 4
0 0 8 2.0 1.0
 8020.0    0.00108
 1338.0    0.00804
  255.4    0.05324
   69.22   0.1681
   23.90   0.3581
    9.264  0.3855
    3.851  0.1468
    1.212  0.0728
0 1 4 8.0 1.0
   49.43  -0.00883 0.00958
   10.47  -0.0915  0.0696
    3.235 -0.0402  0.2065
    1.217  0.379   0.347
0 1 1 0.0 1.0
    0.5    1.0     1.0
0 1 1 0.0 1.0
    0.191  1.0     1.0
99 0
ENDB
UHF
ATOMSPIN
4 
1 1 2 -1 3 -1 4 1
SPINLOCK
0  50 
LEVSHIFT
3 1
FMIXING
60
END

         
 *******************************************************************************
 *                                                                             *
 *                                CRYSTAL06                                    *
 *                          develop 1.0 - cvs090524                            *
 *                          Sequential executable                              *
 *                                                                             *
 *            Compiled:  02 Jan 2011 08:22                                     *
 *            Xmake: Mac-intel                                                 *
 *                                                                             *
 *                                                                             *
 *                              MAIN AUTHORS                                   *
 *                                                                             *
 *    R. DOVESI(1,10), V.R. SAUNDERS(2), C. ROETTI(1,10), R. ORLANDO (1,3),    *
 *  C.M. ZICOVICH-WILSON(1,4), F. PASCALE(5), B. CIVALLERI(1,10), K. DOLL(6),  *
 *       N.M. HARRISON(2,7), I. J. BUSH(2), Ph. D'ARCO(8), M. LLUNELL(9)       *
 *                                                                             *
 * (1) THEORETICAL CHEMISTRY GROUP - UNIVERSITA' DI TORINO - TORINO (ITALY)    *
 *      http://www.crystal.unito.it                                            *
 * (2) COMPUTATIONAL SCIENCE & ENGINEERING DEPARTMENT - CCLRC DARESBURY (UK)   *
 *     http://www.cse.clrc.ac.uk/cmg/CRYSTAL/                                  *
 * (3) UNIVERSITA' DEL PIEMONTE ORIENTALE - ALESSANDRIA (ITALY)                *
 * (4) UNIVERSIDAD AUTONOMA DEL ESTADO DE MORELOS - CUERNAVACA (MEXICO)        *
 * (5) UNIVERSITE' HENRI POINCARE' - NANCY (FRANCE)                            *
 * (6) MPI FUER FESTKOERPERFORSCHUNG - STUTTGART (GERMANY)                     *
 * (7) IMPERIAL COLLEGE - LONDON (UK)                                          *
 * (8) UNIVERSITE' PIERRE ET MARIE CURIE - PARIS (FRANCE)                      *
 * (9) UNIVERSIDAD DE BARCELONA - BARCELONA (SPAIN)                            *
 *(10) NIS - NANOSTRUCTURED INTERFACES AND SURFACES - TORINO (ITALY)           *
 *     http://www.crystal.unito.it                                             *
 *******************************************************************************
 EEEEEEEEEE STARTING  DATE 18 03 2011 TIME 06:24:14.2
 TEST nanoparticle 5nm from hematite bulk B40LYP                                 

 GEOMETRY INPUT FROM EXTERNAL FILE (FORTRAN UNIT 34)
 3D - CRYSTAL 

 *******************************************************************************
 LATTICE PARAMETERS  (ANGSTROMS AND DEGREES) - PRIMITIVE CELL
       A          B          C         ALPHA      BETA     GAMMA        VOLUME
    5.43312    5.43312    5.43312     55.4753   55.4753   55.4753     101.49023

 NUMBER OF IRREDUCIBLE ATOMS IN THE CELL:    6

 CARTESIAN COORDINATES (ANGSTROM) - IRREDUCIBLE ATOMS AND SYMMETRY RELATED

 AT.IRR.  AT  AT.N.          X                   Y                   Z
     1     1    26    1.459947861333E+00 -2.528703872230E+00  3.154305792000E-01
     2     2    26    0.000000000000E+00  0.000000000000E+00 -1.975371237996E+00
     3     3    26    0.000000000000E+00  0.000000000000E+00  1.975558387362E+00
     4     4    26   -1.459947861333E+00 -2.528703872230E+00 -3.152437278920E-01
     5     5     8   -1.590776097567E+00 -7.674741376630E-01 -1.145554069372E+00
     5     6     8    1.460040148747E+00 -9.939154433939E-01 -1.145554069372E+00
     5     7     8    1.307359488201E-01  1.761389581057E+00 -1.145554069372E+00
     6     8     8    1.590683135649E+00  7.673117924820E-01  1.145429402472E+00
     6     9     8   -1.459853072737E+00  9.939161086018E-01  1.145429402472E+00
     6    10     8   -1.308300629121E-01 -1.761227901084E+00  1.145429402472E+00

 NUMBER OF SYMMETRY OPERATORS         :    3
 *******************************************************************************
 LATTICE PARAMETERS (ANGSTROMS AND DEGREES) - BOHR = 0.5291772083 ANGSTROM
 PRIMITIVE CELL - CENTRING CODE 7/0 VOLUME=   101.490226 - DENSITY  5.231 g/cm^3
         A              B              C           ALPHA      BETA       GAMMA 
     5.43312336     5.43312336     5.43312336    55.475281  55.475281  55.475281
 *******************************************************************************
 ATOMS IN THE ASYMMETRIC UNIT    6 - ATOMS IN THE UNIT CELL:   10
     ATOM              X/A                 Y/B                 Z/C    
 *******************************************************************************
   1 T  26 FE    3.562813358494E-01  3.562813358496E-01  3.562813358496E-01
   2 T  26 FE   -1.437109371410E-01 -1.437109371415E-01 -1.437109371415E-01
   3 T  26 FE    1.437245525113E-01  1.437245525118E-01  1.437245525118E-01
   4 T  26 FE   -3.562677421632E-01 -3.562677421634E-01 -3.562677421634E-01
   5 T   8 O    -4.465444728621E-01 -5.349115637513E-02  2.500137917888E-01
   6 F   8 O     2.500137917889E-01 -4.465444728623E-01 -5.349115637511E-02
   7 F   8 O    -5.349115637472E-02  2.500137917886E-01 -4.465444728624E-01
   8 T   8 O     4.465141782358E-01  5.346059868608E-02 -2.499801485317E-01
   9 F   8 O    -2.499801485319E-01  4.465141782360E-01  5.346059868606E-02
  10 F   8 O     5.346059868567E-02 -2.499801485316E-01  4.465141782361E-01

 TRANSFORMATION MATRIX PRIMITIVE-CRYSTALLOGRAPHIC CELL
  1.0000  0.0000  1.0000 -1.0000  1.0000  1.0000  0.0000 -1.0000  1.0000

 *******************************************************************************
 CRYSTALLOGRAPHIC CELL (VOLUME=        304.47067834)
         A              B              C           ALPHA      BETA       GAMMA 
     5.05740774     5.05740774    13.74544817    90.000000  90.000000 120.000000

 COORDINATES IN THE CRYSTALLOGRAPHIC CELL
     ATOM              X/A                 Y/B                 Z/C    
 *******************************************************************************
   1 T  26 FE    3.333333333332E-01 -3.333333333334E-01  2.294800251615E-02
   2 T  26 FE    3.281189071615E-13  1.640594535808E-13 -1.437109371413E-01
   3 T  26 FE   -3.281499935944E-13 -1.640749967972E-13  1.437245525116E-01
   4 T  26 FE   -3.333333333332E-01  3.333333333334E-01 -2.293440883003E-02
   5 T   8 O    -3.632038603793E-01 -3.333544042716E-01 -8.334061248282E-02
   6 F   8 O     3.333544042717E-01 -2.984945610771E-02 -8.334061248282E-02
   7 F   8 O     2.984945610810E-02  3.632038603796E-01 -8.334061248282E-02
   8 T   8 O     3.631826354391E-01  3.333116913284E-01  8.333154279674E-02
   9 F   8 O    -3.333116913286E-01  2.987094411067E-02  8.333154279674E-02
  10 F   8 O    -2.987094411107E-02 -3.631826354394E-01  8.333154279674E-02

 T = ATOM BELONGING TO THE ASYMMETRIC UNIT
 *******************************************************************************
 * GEOMETRY EDITING - INPUT COORDINATES ARE GIVEN IN ANGSTROM          
 *******************************************************************************

 GEOMETRY NOW FULLY CONSISTENT WITH THE GROUP

 NO SYMMOPS WITH FINITE TRANSLATIONAL COMPONENT

 *******************************************************************************
 * SUPERCELL OPTION
 *******************************************************************************


        EXPANSION MATRIX OF PRIMITIVE CELL
 E1     4.000     0.000     0.000
 E2     0.000     4.000     0.000
 E3     0.000     0.000     4.000

 NUMBER OF ATOMS PER SUPERCELL  640

        DIRECT LATTICE VECTORS COMPONENTS (ANGSTROM)
 B1    11.680     0.000    18.327
 B2    -5.840    10.115    18.327
 B3    -5.840   -10.115    18.327

 LATTICE PARAMETERS  (ANGSTROM AND DEGREES)
       A          B          C         ALPHA     BETA     GAMMA        VOLUME
   21.73249   21.73249   21.73249    55.47528  55.47528  55.47528   6495.374471


 **** ATOMS BELONGING TO THE SUPERCELL
 LABEL AT.NO.      COORDINATES (ANGSTROM AND FRACTIONARY)
     1    26     1.4599    -2.5287     0.3154     0.0891    -0.1609     0.0891
     2    26     0.0000    -5.0574     4.8972     0.0891    -0.1609     0.3391
     3    26     4.3798     2.5287    -8.8482     0.0891    -0.1609    -0.4109
     4    26     2.9199     0.0000    -4.2664     0.0891    -0.1609    -0.1609
     5    26     0.0000     0.0000     4.8972     0.0891     0.0891     0.0891
     6    26    -1.4599    -2.5287     9.4791     0.0891     0.0891     0.3391
     7    26     2.9199     5.0574    -4.2664     0.0891     0.0891    -0.4109
     8    26     1.4599     2.5287     0.3154     0.0891     0.0891    -0.1609
     9    26    -1.4599     2.5287     9.4791     0.0891     0.3391     0.0891
    10    26    -2.9199     0.0000    14.0609     0.0891     0.3391     0.3391
    11    26     1.4599     7.5861     0.3154     0.0891     0.3391    -0.4109
    12    26     0.0000     5.0574     4.8972     0.0891     0.3391    -0.1609
    13    26     2.9199    -5.0574    -4.2664     0.0891    -0.4109     0.0891
    14    26     1.4599    -7.5861     0.3154     0.0891    -0.4109     0.3391
    15    26     5.8398     0.0000   -13.4300     0.0891    -0.4109    -0.4109
    16    26     4.3798    -2.5287    -8.8482     0.0891    -0.4109    -0.1609
    17    26     4.3798    -2.5287     4.8972     0.3391    -0.1609     0.0891
    18    26     2.9199    -5.0574     9.4791     0.3391    -0.1609     0.3391
    19    26     7.2997     2.5287    -4.2664     0.3391    -0.1609    -0.4109
    20    26     5.8398     0.0000     0.3154     0.3391    -0.1609    -0.1609
    21    26     2.9199     0.0000     9.4791     0.3391     0.0891     0.0891
    22    26     1.4599    -2.5287    14.0609     0.3391     0.0891     0.3391
    23    26     5.8398     5.0574     0.3154     0.3391     0.0891    -0.4109
    24    26     4.3798     2.5287     4.8972     0.3391     0.0891    -0.1609
    25    26     1.4599     2.5287    14.0609     0.3391     0.3391     0.0891
    26    26     0.0000     0.0000    18.6427     0.3391     0.3391     0.3391
    27    26     4.3798     7.5861     4.8972     0.3391     0.3391    -0.4109
    28    26     2.9199     5.0574     9.4791     0.3391     0.3391    -0.1609
    29    26     5.8398    -5.0574     0.3154     0.3391    -0.4109     0.0891
    30    26     4.3798    -7.5861     4.8972     0.3391    -0.4109     0.3391
    31    26     8.7597     0.0000    -8.8482     0.3391    -0.4109    -0.4109
    32    26     7.2997    -2.5287    -4.2664     0.3391    -0.4109    -0.1609
    33    26    -4.3798    -2.5287    -8.8482    -0.4109    -0.1609     0.0891
    34    26    -5.8398    -5.0574    -4.2664    -0.4109    -0.1609     0.3391
    35    26    -1.4599     2.5287   -18.0118    -0.4109    -0.1609    -0.4109
    36    26    -2.9199     0.0000   -13.4300    -0.4109    -0.1609    -0.1609
    37    26    -5.8398     0.0000    -4.2664    -0.4109     0.0891     0.0891
    38    26    -7.2997    -2.5287     0.3154    -0.4109     0.0891     0.3391
    39    26    -2.9199     5.0574   -13.4300    -0.4109     0.0891    -0.4109
    40    26    -4.3798     2.5287    -8.8482    -0.4109     0.0891    -0.1609
    41    26    -7.2997     2.5287     0.3154    -0.4109     0.3391     0.0891
    42    26    -8.7597     0.0000     4.8972    -0.4109     0.3391     0.3391
    43    26    -4.3798     7.5861    -8.8482    -0.4109     0.3391    -0.4109
    44    26    -5.8398     5.0574    -4.2664    -0.4109     0.3391    -0.1609
    45    26    -2.9199    -5.0574   -13.4300    -0.4109    -0.4109     0.0891
    46    26    -4.3798    -7.5861    -8.8482    -0.4109    -0.4109     0.3391
    47    26     0.0000     0.0000   -22.5936    -0.4109    -0.4109    -0.4109
    48    26    -1.4599    -2.5287   -18.0118    -0.4109    -0.4109    -0.1609
    49    26    -1.4599    -2.5287    -4.2664    -0.1609    -0.1609     0.0891
    50    26    -2.9199    -5.0574     0.3154    -0.1609    -0.1609     0.3391
    51    26     1.4599     2.5287   -13.4300    -0.1609    -0.1609    -0.4109
    52    26     0.0000     0.0000    -8.8482    -0.1609    -0.1609    -0.1609
    53    26    -2.9199     0.0000     0.3154    -0.1609     0.0891     0.0891
    54    26    -4.3798    -2.5287     4.8972    -0.1609     0.0891     0.3391
    55    26     0.0000     5.0574    -8.8482    -0.1609     0.0891    -0.4109
    56    26    -1.4599     2.5287    -4.2664    -0.1609     0.0891    -0.1609
    57    26    -4.3798     2.5287     4.8972    -0.1609     0.3391     0.0891
    58    26    -5.8398     0.0000     9.4791    -0.1609     0.3391     0.3391
    59    26    -1.4599     7.5861    -4.2664    -0.1609     0.3391    -0.4109
    60    26    -2.9199     5.0574     0.3154    -0.1609     0.3391    -0.1609
    61    26     0.0000    -5.0574    -8.8482    -0.1609    -0.4109     0.0891
    62    26    -1.4599    -7.5861    -4.2664    -0.1609    -0.4109     0.3391
    63    26     2.9199     0.0000   -18.0118    -0.1609    -0.4109    -0.4109
    64    26     1.4599    -2.5287   -13.4300    -0.1609    -0.4109    -0.1609
    65    26     0.0000     0.0000    -1.9754    -0.0359    -0.0359    -0.0359
    66    26    -1.4599    -2.5287     2.6064    -0.0359    -0.0359     0.2141
    67    26    -2.9199    -5.0574     7.1883    -0.0359    -0.0359     0.4641
    68    26     1.4599     2.5287    -6.5572    -0.0359    -0.0359    -0.2859
    69    26    -1.4599     2.5287     2.6064    -0.0359     0.2141    -0.0359
    70    26    -2.9199     0.0000     7.1883    -0.0359     0.2141     0.2141
    71    26    -4.3798    -2.5287    11.7701    -0.0359     0.2141     0.4641
    72    26     0.0000     5.0574    -1.9754    -0.0359     0.2141    -0.2859
    73    26    -2.9199     5.0574     7.1883    -0.0359     0.4641    -0.0359
    74    26    -4.3798     2.5287    11.7701    -0.0359     0.4641     0.2141
    75    26    -5.8398     0.0000    16.3519    -0.0359     0.4641     0.4641
    76    26    -1.4599     7.5861     2.6064    -0.0359     0.4641    -0.2859
    77    26     1.4599    -2.5287    -6.5572    -0.0359    -0.2859    -0.0359
    78    26     0.0000    -5.0574    -1.9754    -0.0359    -0.2859     0.2141
    79    26    -1.4599    -7.5861     2.6064    -0.0359    -0.2859     0.4641
    80    26     2.9199     0.0000   -11.1390    -0.0359    -0.2859    -0.2859
    81    26     2.9199     0.0000     2.6064     0.2141    -0.0359    -0.0359
    82    26     1.4599    -2.5287     7.1883     0.2141    -0.0359     0.2141
    83    26     0.0000    -5.0574    11.7701     0.2141    -0.0359     0.4641
    84    26     4.3798     2.5287    -1.9754     0.2141    -0.0359    -0.2859
    85    26     1.4599     2.5287     7.1883     0.2141     0.2141    -0.0359
    86    26     0.0000     0.0000    11.7701     0.2141     0.2141     0.2141
    87    26    -1.4599    -2.5287    16.3519     0.2141     0.2141     0.4641
    88    26     2.9199     5.0574     2.6064     0.2141     0.2141    -0.2859
    89    26     0.0000     5.0574    11.7701     0.2141     0.4641    -0.0359
    90    26    -1.4599     2.5287    16.3519     0.2141     0.4641     0.2141
    91    26    -2.9199     0.0000    20.9337     0.2141     0.4641     0.4641
    92    26     1.4599     7.5861     7.1883     0.2141     0.4641    -0.2859
    93    26     4.3798    -2.5287    -1.9754     0.2141    -0.2859    -0.0359
    94    26     2.9199    -5.0574     2.6064     0.2141    -0.2859     0.2141
    95    26     1.4599    -7.5861     7.1883     0.2141    -0.2859     0.4641
    96    26     5.8398     0.0000    -6.5572     0.2141    -0.2859    -0.2859
    97    26     5.8398     0.0000     7.1883     0.4641    -0.0359    -0.0359
    98    26     4.3798    -2.5287    11.7701     0.4641    -0.0359     0.2141
    99    26     2.9199    -5.0574    16.3519     0.4641    -0.0359     0.4641
   100    26     7.2997     2.5287     2.6064     0.4641    -0.0359    -0.2859
   101    26     4.3798     2.5287    11.7701     0.4641     0.2141    -0.0359
   102    26     2.9199     0.0000    16.3519     0.4641     0.2141     0.2141
   103    26     1.4599    -2.5287    20.9337     0.4641     0.2141     0.4641
   104    26     5.8398     5.0574     7.1883     0.4641     0.2141    -0.2859
   105    26     2.9199     5.0574    16.3519     0.4641     0.4641    -0.0359
   106    26     1.4599     2.5287    20.9337     0.4641     0.4641     0.2141
   107    26     0.0000     0.0000    25.5155     0.4641     0.4641     0.4641
   108    26     4.3798     7.5861    11.7701     0.4641     0.4641    -0.2859
   109    26     7.2997    -2.5287     2.6064     0.4641    -0.2859    -0.0359
   110    26     5.8398    -5.0574     7.1883     0.4641    -0.2859     0.2141
   111    26     4.3798    -7.5861    11.7701     0.4641    -0.2859     0.4641
   112    26     8.7597     0.0000    -1.9754     0.4641    -0.2859    -0.2859
   113    26    -2.9199     0.0000    -6.5572    -0.2859    -0.0359    -0.0359
   114    26    -4.3798    -2.5287    -1.9754    -0.2859    -0.0359     0.2141
   115    26    -5.8398    -5.0574     2.6064    -0.2859    -0.0359     0.4641
   116    26    -1.4599     2.5287   -11.1390    -0.2859    -0.0359    -0.2859
   117    26    -4.3798     2.5287    -1.9754    -0.2859     0.2141    -0.0359
   118    26    -5.8398     0.0000     2.6064    -0.2859     0.2141     0.2141
   119    26    -7.2997    -2.5287     7.1883    -0.2859     0.2141     0.4641
   120    26    -2.9199     5.0574    -6.5572    -0.2859     0.2141    -0.2859
   121    26    -5.8398     5.0574     2.6064    -0.2859     0.4641    -0.0359
   122    26    -7.2997     2.5287     7.1883    -0.2859     0.4641     0.2141
   123    26    -8.7597     0.0000    11.7701    -0.2859     0.4641     0.4641
   124    26    -4.3798     7.5861    -1.9754    -0.2859     0.4641    -0.2859
   125    26    -1.4599    -2.5287   -11.1390    -0.2859    -0.2859    -0.0359
   126    26    -2.9199    -5.0574    -6.5572    -0.2859    -0.2859     0.2141
   127    26    -4.3798    -7.5861    -1.9754    -0.2859    -0.2859     0.4641
   128    26     0.0000     0.0000   -15.7208    -0.2859    -0.2859    -0.2859
   129    26     0.0000     0.0000     1.9756     0.0359     0.0359     0.0359
   130    26    -1.4599    -2.5287     6.5574     0.0359     0.0359     0.2859
   131    26     2.9199     5.0574    -7.1881     0.0359     0.0359    -0.4641
   132    26     1.4599     2.5287    -2.6063     0.0359     0.0359    -0.2141
   133    26    -1.4599     2.5287     6.5574     0.0359     0.2859     0.0359
   134    26    -2.9199     0.0000    11.1392     0.0359     0.2859     0.2859
   135    26     1.4599     7.5861    -2.6063     0.0359     0.2859    -0.4641
   136    26     0.0000     5.0574     1.9756     0.0359     0.2859    -0.2141
   137    26     2.9199    -5.0574    -7.1881     0.0359    -0.4641     0.0359
   138    26     1.4599    -7.5861    -2.6063     0.0359    -0.4641     0.2859
   139    26     5.8398     0.0000   -16.3517     0.0359    -0.4641    -0.4641
   140    26     4.3798    -2.5287   -11.7699     0.0359    -0.4641    -0.2141
   141    26     1.4599    -2.5287    -2.6063     0.0359    -0.2141     0.0359
   142    26     0.0000    -5.0574     1.9756     0.0359    -0.2141     0.2859
   143    26     4.3798     2.5287   -11.7699     0.0359    -0.2141    -0.4641
   144    26     2.9199     0.0000    -7.1881     0.0359    -0.2141    -0.2141
   145    26     2.9199     0.0000     6.5574     0.2859     0.0359     0.0359
   146    26     1.4599    -2.5287    11.1392     0.2859     0.0359     0.2859
   147    26     5.8398     5.0574    -2.6063     0.2859     0.0359    -0.4641
   148    26     4.3798     2.5287     1.9756     0.2859     0.0359    -0.2141
   149    26     1.4599     2.5287    11.1392     0.2859     0.2859     0.0359
   150    26     0.0000     0.0000    15.7210     0.2859     0.2859     0.2859
   151    26     4.3798     7.5861     1.9756     0.2859     0.2859    -0.4641
   152    26     2.9199     5.0574     6.5574     0.2859     0.2859    -0.2141
   153    26     5.8398    -5.0574    -2.6063     0.2859    -0.4641     0.0359
   154    26     4.3798    -7.5861     1.9756     0.2859    -0.4641     0.2859
   155    26     8.7597     0.0000   -11.7699     0.2859    -0.4641    -0.4641
   156    26     7.2997    -2.5287    -7.1881     0.2859    -0.4641    -0.2141
   157    26     4.3798    -2.5287     1.9756     0.2859    -0.2141     0.0359
   158    26     2.9199    -5.0574     6.5574     0.2859    -0.2141     0.2859
   159    26     7.2997     2.5287    -7.1881     0.2859    -0.2141    -0.4641
   160    26     5.8398     0.0000    -2.6063     0.2859    -0.2141    -0.2141
   161    26    -5.8398     0.0000    -7.1881    -0.4641     0.0359     0.0359
   162    26    -7.2997    -2.5287    -2.6063    -0.4641     0.0359     0.2859
   163    26    -2.9199     5.0574   -16.3517    -0.4641     0.0359    -0.4641
   164    26    -4.3798     2.5287   -11.7699    -0.4641     0.0359    -0.2141
   165    26    -7.2997     2.5287    -2.6063    -0.4641     0.2859     0.0359
   166    26    -8.7597     0.0000     1.9756    -0.4641     0.2859     0.2859
   167    26    -4.3798     7.5861   -11.7699    -0.4641     0.2859    -0.4641
   168    26    -5.8398     5.0574    -7.1881    -0.4641     0.2859    -0.2141
   169    26    -2.9199    -5.0574   -16.3517    -0.4641    -0.4641     0.0359
   170    26    -4.3798    -7.5861   -11.7699    -0.4641    -0.4641     0.2859
   171    26     0.0000     0.0000   -25.5153    -0.4641    -0.4641    -0.4641
   172    26    -1.4599    -2.5287   -20.9335    -0.4641    -0.4641    -0.2141
   173    26    -4.3798    -2.5287   -11.7699    -0.4641    -0.2141     0.0359
   174    26    -5.8398    -5.0574    -7.1881    -0.4641    -0.2141     0.2859
   175    26    -1.4599     2.5287   -20.9335    -0.4641    -0.2141    -0.4641
   176    26    -2.9199     0.0000   -16.3517    -0.4641    -0.2141    -0.2141
   177    26    -2.9199     0.0000    -2.6063    -0.2141     0.0359     0.0359
   178    26    -4.3798    -2.5287     1.9756    -0.2141     0.0359     0.2859
   179    26     0.0000     5.0574   -11.7699    -0.2141     0.0359    -0.4641
   180    26    -1.4599     2.5287    -7.1881    -0.2141     0.0359    -0.2141
   181    26    -4.3798     2.5287     1.9756    -0.2141     0.2859     0.0359
   182    26    -5.8398     0.0000     6.5574    -0.2141     0.2859     0.2859
   183    26    -1.4599     7.5861    -7.1881    -0.2141     0.2859    -0.4641
   184    26    -2.9199     5.0574    -2.6063    -0.2141     0.2859    -0.2141
   185    26     0.0000    -5.0574   -11.7699    -0.2141    -0.4641     0.0359
   186    26    -1.4599    -7.5861    -7.1881    -0.2141    -0.4641     0.2859
   187    26     2.9199     0.0000   -20.9335    -0.2141    -0.4641    -0.4641
   188    26     1.4599    -2.5287   -16.3517    -0.2141    -0.4641    -0.2141
   189    26    -1.4599    -2.5287    -7.1881    -0.2141    -0.2141     0.0359
   190    26    -2.9199    -5.0574    -2.6063    -0.2141    -0.2141     0.2859
   191    26     1.4599     2.5287   -16.3517    -0.2141    -0.2141    -0.4641
   192    26     0.0000     0.0000   -11.7699    -0.2141    -0.2141    -0.2141
   193    26    -1.4599    -2.5287    -0.3152    -0.0891    -0.0891     0.1609
   194    26    -2.9199    -5.0574     4.2666    -0.0891    -0.0891     0.4109
   195    26     1.4599     2.5287    -9.4789    -0.0891    -0.0891    -0.3391
   196    26     0.0000     0.0000    -4.8971    -0.0891    -0.0891    -0.0891
   197    26    -2.9199     0.0000     4.2666    -0.0891     0.1609     0.1609
   198    26    -4.3798    -2.5287     8.8484    -0.0891     0.1609     0.4109
   199    26     0.0000     5.0574    -4.8971    -0.0891     0.1609    -0.3391
   200    26    -1.4599     2.5287    -0.3152    -0.0891     0.1609    -0.0891
   201    26    -4.3798     2.5287     8.8484    -0.0891     0.4109     0.1609
   202    26    -5.8398     0.0000    13.4302    -0.0891     0.4109     0.4109
   203    26    -1.4599     7.5861    -0.3152    -0.0891     0.4109    -0.3391
   204    26    -2.9199     5.0574     4.2666    -0.0891     0.4109    -0.0891
   205    26     0.0000    -5.0574    -4.8971    -0.0891    -0.3391     0.1609
   206    26    -1.4599    -7.5861    -0.3152    -0.0891    -0.3391     0.4109
   207    26     2.9199     0.0000   -14.0607    -0.0891    -0.3391    -0.3391
   208    26     1.4599    -2.5287    -9.4789    -0.0891    -0.3391    -0.0891
   209    26     1.4599    -2.5287     4.2666     0.1609    -0.0891     0.1609
   210    26     0.0000    -5.0574     8.8484     0.1609    -0.0891     0.4109
   211    26     4.3798     2.5287    -4.8971     0.1609    -0.0891    -0.3391
   212    26     2.9199     0.0000    -0.3152     0.1609    -0.0891    -0.0891
   213    26     0.0000     0.0000     8.8484     0.1609     0.1609     0.1609
   214    26    -1.4599    -2.5287    13.4302     0.1609     0.1609     0.4109
   215    26     2.9199     5.0574    -0.3152     0.1609     0.1609    -0.3391
   216    26     1.4599     2.5287     4.2666     0.1609     0.1609    -0.0891
   217    26    -1.4599     2.5287    13.4302     0.1609     0.4109     0.1609
   218    26    -2.9199     0.0000    18.0120     0.1609     0.4109     0.4109
   219    26     1.4599     7.5861     4.2666     0.1609     0.4109    -0.3391
   220    26     0.0000     5.0574     8.8484     0.1609     0.4109    -0.0891
   221    26     2.9199    -5.0574    -0.3152     0.1609    -0.3391     0.1609
   222    26     1.4599    -7.5861     4.2666     0.1609    -0.3391     0.4109
   223    26     5.8398     0.0000    -9.4789     0.1609    -0.3391    -0.3391
   224    26     4.3798    -2.5287    -4.8971     0.1609    -0.3391    -0.0891
   225    26     4.3798    -2.5287     8.8484     0.4109    -0.0891     0.1609
   226    26     2.9199    -5.0574    13.4302     0.4109    -0.0891     0.4109
   227    26     7.2997     2.5287    -0.3152     0.4109    -0.0891    -0.3391
   228    26     5.8398     0.0000     4.2666     0.4109    -0.0891    -0.0891
   229    26     2.9199     0.0000    13.4302     0.4109     0.1609     0.1609
   230    26     1.4599    -2.5287    18.0120     0.4109     0.1609     0.4109
   231    26     5.8398     5.0574     4.2666     0.4109     0.1609    -0.3391
   232    26     4.3798     2.5287     8.8484     0.4109     0.1609    -0.0891
   233    26     1.4599     2.5287    18.0120     0.4109     0.4109     0.1609
   234    26     0.0000     0.0000    22.5938     0.4109     0.4109     0.4109
   235    26     4.3798     7.5861     8.8484     0.4109     0.4109    -0.3391
   236    26     2.9199     5.0574    13.4302     0.4109     0.4109    -0.0891
   237    26     5.8398    -5.0574     4.2666     0.4109    -0.3391     0.1609
   238    26     4.3798    -7.5861     8.8484     0.4109    -0.3391     0.4109
   239    26     8.7597     0.0000    -4.8971     0.4109    -0.3391    -0.3391
   240    26     7.2997    -2.5287    -0.3152     0.4109    -0.3391    -0.0891
   241    26    -4.3798    -2.5287    -4.8971    -0.3391    -0.0891     0.1609
   242    26    -5.8398    -5.0574    -0.3152    -0.3391    -0.0891     0.4109
   243    26    -1.4599     2.5287   -14.0607    -0.3391    -0.0891    -0.3391
   244    26    -2.9199     0.0000    -9.4789    -0.3391    -0.0891    -0.0891
   245    26    -5.8398     0.0000    -0.3152    -0.3391     0.1609     0.1609
   246    26    -7.2997    -2.5287     4.2666    -0.3391     0.1609     0.4109
   247    26    -2.9199     5.0574    -9.4789    -0.3391     0.1609    -0.3391
   248    26    -4.3798     2.5287    -4.8971    -0.3391     0.1609    -0.0891
   249    26    -7.2997     2.5287     4.2666    -0.3391     0.4109     0.1609
   250    26    -8.7597     0.0000     8.8484    -0.3391     0.4109     0.4109
   251    26    -4.3798     7.5861    -4.8971    -0.3391     0.4109    -0.3391
   252    26    -5.8398     5.0574    -0.3152    -0.3391     0.4109    -0.0891
   253    26    -2.9199    -5.0574    -9.4789    -0.3391    -0.3391     0.1609
   254    26    -4.3798    -7.5861    -4.8971    -0.3391    -0.3391     0.4109
   255    26     0.0000     0.0000   -18.6425    -0.3391    -0.3391    -0.3391
   256    26    -1.4599    -2.5287   -14.0607    -0.3391    -0.3391    -0.0891
   257     8    -1.5908    -0.7675    -1.1456    -0.1116    -0.0134     0.0625
   258     8    -3.0507    -3.2962     3.4363    -0.1116    -0.0134     0.3125
   259     8     1.3291     4.2899   -10.3092    -0.1116    -0.0134    -0.4375
   260     8    -0.1308     1.7612    -5.7274    -0.1116    -0.0134    -0.1875
   261     8    -3.0507     1.7612     3.4363    -0.1116     0.2366     0.0625
   262     8    -4.5107    -0.7675     8.0181    -0.1116     0.2366     0.3125
   263     8    -0.1308     6.8186    -5.7274    -0.1116     0.2366    -0.4375
   264     8    -1.5908     4.2899    -1.1456    -0.1116     0.2366    -0.1875
   265     8    -4.5107     4.2899     8.0181    -0.1116     0.4866     0.0625
   266     8    -5.9706     1.7612    12.5999    -0.1116     0.4866     0.3125
   267     8    -1.5908     9.3473    -1.1456    -0.1116     0.4866    -0.4375
   268     8    -3.0507     6.8186     3.4363    -0.1116     0.4866    -0.1875
   269     8    -0.1308    -3.2962    -5.7274    -0.1116    -0.2634     0.0625
   270     8    -1.5908    -5.8249    -1.1456    -0.1116    -0.2634     0.3125
   271     8     2.7891     1.7612   -14.8910    -0.1116    -0.2634    -0.4375
   272     8     1.3291    -0.7675   -10.3092    -0.1116    -0.2634    -0.1875
   273     8     1.3291    -0.7675     3.4363     0.1384    -0.0134     0.0625
   274     8    -0.1308    -3.2962     8.0181     0.1384    -0.0134     0.3125
   275     8     4.2490     4.2899    -5.7274     0.1384    -0.0134    -0.4375
   276     8     2.7891     1.7612    -1.1456     0.1384    -0.0134    -0.1875
   277     8    -0.1308     1.7612     8.0181     0.1384     0.2366     0.0625
   278     8    -1.5908    -0.7675    12.5999     0.1384     0.2366     0.3125
   279     8     2.7891     6.8186    -1.1456     0.1384     0.2366    -0.4375
   280     8     1.3291     4.2899     3.4363     0.1384     0.2366    -0.1875
   281     8    -1.5908     4.2899    12.5999     0.1384     0.4866     0.0625
   282     8    -3.0507     1.7612    17.1817     0.1384     0.4866     0.3125
   283     8     1.3291     9.3473     3.4363     0.1384     0.4866    -0.4375
   284     8    -0.1308     6.8186     8.0181     0.1384     0.4866    -0.1875
   285     8     2.7891    -3.2962    -1.1456     0.1384    -0.2634     0.0625
   286     8     1.3291    -5.8249     3.4363     0.1384    -0.2634     0.3125
   287     8     5.7090     1.7612   -10.3092     0.1384    -0.2634    -0.4375
   288     8     4.2490    -0.7675    -5.7274     0.1384    -0.2634    -0.1875
   289     8     4.2490    -0.7675     8.0181     0.3884    -0.0134     0.0625
   290     8     2.7891    -3.2962    12.5999     0.3884    -0.0134     0.3125
   291     8     7.1689     4.2899    -1.1456     0.3884    -0.0134    -0.4375
   292     8     5.7090     1.7612     3.4363     0.3884    -0.0134    -0.1875
   293     8     2.7891     1.7612    12.5999     0.3884     0.2366     0.0625
   294     8     1.3291    -0.7675    17.1817     0.3884     0.2366     0.3125
   295     8     5.7090     6.8186     3.4363     0.3884     0.2366    -0.4375
   296     8     4.2490     4.2899     8.0181     0.3884     0.2366    -0.1875
   297     8     1.3291     4.2899    17.1817     0.3884     0.4866     0.0625
   298     8    -0.1308     1.7612    21.7635     0.3884     0.4866     0.3125
   299     8     4.2490     9.3473     8.0181     0.3884     0.4866    -0.4375
   300     8     2.7891     6.8186    12.5999     0.3884     0.4866    -0.1875
   301     8     5.7090    -3.2962     3.4363     0.3884    -0.2634     0.0625
   302     8     4.2490    -5.8249     8.0181     0.3884    -0.2634     0.3125
   303     8     8.6289     1.7612    -5.7274     0.3884    -0.2634    -0.4375
   304     8     7.1689    -0.7675    -1.1456     0.3884    -0.2634    -0.1875
   305     8    -4.5107    -0.7675    -5.7274    -0.3616    -0.0134     0.0625
   306     8    -5.9706    -3.2962    -1.1456    -0.3616    -0.0134     0.3125
   307     8    -1.5908     4.2899   -14.8910    -0.3616    -0.0134    -0.4375
   308     8    -3.0507     1.7612   -10.3092    -0.3616    -0.0134    -0.1875
   309     8    -5.9706     1.7612    -1.1456    -0.3616     0.2366     0.0625
   310     8    -7.4306    -0.7675     3.4363    -0.3616     0.2366     0.3125
   311     8    -3.0507     6.8186   -10.3092    -0.3616     0.2366    -0.4375
   312     8    -4.5107     4.2899    -5.7274    -0.3616     0.2366    -0.1875
   313     8    -7.4306     4.2899     3.4363    -0.3616     0.4866     0.0625
   314     8    -8.8905     1.7612     8.0181    -0.3616     0.4866     0.3125
   315     8    -4.5107     9.3473    -5.7274    -0.3616     0.4866    -0.4375
   316     8    -5.9706     6.8186    -1.1456    -0.3616     0.4866    -0.1875
   317     8    -3.0507    -3.2962   -10.3092    -0.3616    -0.2634     0.0625
   318     8    -4.5107    -5.8249    -5.7274    -0.3616    -0.2634     0.3125
   319     8    -0.1308     1.7612   -19.4728    -0.3616    -0.2634    -0.4375
   320     8    -1.5908    -0.7675   -14.8910    -0.3616    -0.2634    -0.1875
   321     8     1.4600    -0.9939    -1.1456     0.0625    -0.1116    -0.0134
   322     8     0.0001    -3.5226     3.4363     0.0625    -0.1116     0.2366
   323     8    -1.4599    -6.0513     8.0181     0.0625    -0.1116     0.4866
   324     8     2.9200     1.5348    -5.7274     0.0625    -0.1116    -0.2634
   325     8     0.0001     1.5348     3.4363     0.0625     0.1384    -0.0134
   326     8    -1.4599    -0.9939     8.0181     0.0625     0.1384     0.2366
   327     8    -2.9198    -3.5226    12.5999     0.0625     0.1384     0.4866
   328     8     1.4600     4.0635    -1.1456     0.0625     0.1384    -0.2634
   329     8    -1.4599     4.0635     8.0181     0.0625     0.3884    -0.0134
   330     8    -2.9198     1.5348    12.5999     0.0625     0.3884     0.2366
   331     8    -4.3798    -0.9939    17.1817     0.0625     0.3884     0.4866
   332     8     0.0001     6.5922     3.4363     0.0625     0.3884    -0.2634
   333     8     2.9200    -3.5226    -5.7274     0.0625    -0.3616    -0.0134
   334     8     1.4600    -6.0513    -1.1456     0.0625    -0.3616     0.2366
   335     8     0.0001    -8.5800     3.4363     0.0625    -0.3616     0.4866
   336     8     4.3799    -0.9939   -10.3092     0.0625    -0.3616    -0.2634
   337     8     4.3799    -0.9939     3.4363     0.3125    -0.1116    -0.0134
   338     8     2.9200    -3.5226     8.0181     0.3125    -0.1116     0.2366
   339     8     1.4600    -6.0513    12.5999     0.3125    -0.1116     0.4866
   340     8     5.8399     1.5348    -1.1456     0.3125    -0.1116    -0.2634
   341     8     2.9200     1.5348     8.0181     0.3125     0.1384    -0.0134
   342     8     1.4600    -0.9939    12.5999     0.3125     0.1384     0.2366
   343     8     0.0001    -3.5226    17.1817     0.3125     0.1384     0.4866
   344     8     4.3799     4.0635     3.4363     0.3125     0.1384    -0.2634
   345     8     1.4600     4.0635    12.5999     0.3125     0.3884    -0.0134
   346     8     0.0001     1.5348    17.1817     0.3125     0.3884     0.2366
   347     8    -1.4599    -0.9939    21.7635     0.3125     0.3884     0.4866
   348     8     2.9200     6.5922     8.0181     0.3125     0.3884    -0.2634
   349     8     5.8399    -3.5226    -1.1456     0.3125    -0.3616    -0.0134
   350     8     4.3799    -6.0513     3.4363     0.3125    -0.3616     0.2366
   351     8     2.9200    -8.5800     8.0181     0.3125    -0.3616     0.4866
   352     8     7.2998    -0.9939    -5.7274     0.3125    -0.3616    -0.2634
   353     8    -4.3798    -0.9939   -10.3092    -0.4375    -0.1116    -0.0134
   354     8    -5.8397    -3.5226    -5.7274    -0.4375    -0.1116     0.2366
   355     8    -7.2996    -6.0513    -1.1456    -0.4375    -0.1116     0.4866
   356     8    -2.9198     1.5348   -14.8910    -0.4375    -0.1116    -0.2634
   357     8    -5.8397     1.5348    -5.7274    -0.4375     0.1384    -0.0134
   358     8    -7.2996    -0.9939    -1.1456    -0.4375     0.1384     0.2366
   359     8    -8.7596    -3.5226     3.4363    -0.4375     0.1384     0.4866
   360     8    -4.3798     4.0635   -10.3092    -0.4375     0.1384    -0.2634
   361     8    -7.2996     4.0635    -1.1456    -0.4375     0.3884    -0.0134
   362     8    -8.7596     1.5348     3.4363    -0.4375     0.3884     0.2366
   363     8   -10.2195    -0.9939     8.0181    -0.4375     0.3884     0.4866
   364     8    -5.8397     6.5922    -5.7274    -0.4375     0.3884    -0.2634
   365     8    -2.9198    -3.5226   -14.8910    -0.4375    -0.3616    -0.0134
   366     8    -4.3798    -6.0513   -10.3092    -0.4375    -0.3616     0.2366
   367     8    -5.8397    -8.5800    -5.7274    -0.4375    -0.3616     0.4866
   368     8    -1.4599    -0.9939   -19.4728    -0.4375    -0.3616    -0.2634
   369     8    -1.4599    -0.9939    -5.7274    -0.1875    -0.1116    -0.0134
   370     8    -2.9198    -3.5226    -1.1456    -0.1875    -0.1116     0.2366
   371     8    -4.3798    -6.0513     3.4363    -0.1875    -0.1116     0.4866
   372     8     0.0001     1.5348   -10.3092    -0.1875    -0.1116    -0.2634
   373     8    -2.9198     1.5348    -1.1456    -0.1875     0.1384    -0.0134
   374     8    -4.3798    -0.9939     3.4363    -0.1875     0.1384     0.2366
   375     8    -5.8397    -3.5226     8.0181    -0.1875     0.1384     0.4866
   376     8    -1.4599     4.0635    -5.7274    -0.1875     0.1384    -0.2634
   377     8    -4.3798     4.0635     3.4363    -0.1875     0.3884    -0.0134
   378     8    -5.8397     1.5348     8.0181    -0.1875     0.3884     0.2366
   379     8    -7.2996    -0.9939    12.5999    -0.1875     0.3884     0.4866
   380     8    -2.9198     6.5922    -1.1456    -0.1875     0.3884    -0.2634
   381     8     0.0001    -3.5226   -10.3092    -0.1875    -0.3616    -0.0134
   382     8    -1.4599    -6.0513    -5.7274    -0.1875    -0.3616     0.2366
   383     8    -2.9198    -8.5800    -1.1456    -0.1875    -0.3616     0.4866
   384     8     1.4600    -0.9939   -14.8910    -0.1875    -0.3616    -0.2634
   385     8     0.1307     1.7614    -1.1456    -0.0134     0.0625    -0.1116
   386     8    -1.3292    -0.7673     3.4363    -0.0134     0.0625     0.1384
   387     8    -2.7892    -3.2960     8.0181    -0.0134     0.0625     0.3884
   388     8     1.5907     4.2901    -5.7274    -0.0134     0.0625    -0.3616
   389     8    -1.3292     4.2901     3.4363    -0.0134     0.3125    -0.1116
   390     8    -2.7892     1.7614     8.0181    -0.0134     0.3125     0.1384
   391     8    -4.2491    -0.7673    12.5999    -0.0134     0.3125     0.3884
   392     8     0.1307     6.8188    -1.1456    -0.0134     0.3125    -0.3616
   393     8     3.0506    -3.2960   -10.3092    -0.0134    -0.4375    -0.1116
   394     8     1.5907    -5.8247    -5.7274    -0.0134    -0.4375     0.1384
   395     8     0.1307    -8.3534    -1.1456    -0.0134    -0.4375     0.3884
   396     8     4.5106    -0.7673   -14.8910    -0.0134    -0.4375    -0.3616
   397     8     1.5907    -0.7673    -5.7274    -0.0134    -0.1875    -0.1116
   398     8     0.1307    -3.2960    -1.1456    -0.0134    -0.1875     0.1384
   399     8    -1.3292    -5.8247     3.4363    -0.0134    -0.1875     0.3884
   400     8     3.0506     1.7614   -10.3092    -0.0134    -0.1875    -0.3616
   401     8     3.0506     1.7614     3.4363     0.2366     0.0625    -0.1116
   402     8     1.5907    -0.7673     8.0181     0.2366     0.0625     0.1384
   403     8     0.1307    -3.2960    12.5999     0.2366     0.0625     0.3884
   404     8     4.5106     4.2901    -1.1456     0.2366     0.0625    -0.3616
   405     8     1.5907     4.2901     8.0181     0.2366     0.3125    -0.1116
   406     8     0.1307     1.7614    12.5999     0.2366     0.3125     0.1384
   407     8    -1.3292    -0.7673    17.1817     0.2366     0.3125     0.3884
   408     8     3.0506     6.8188     3.4363     0.2366     0.3125    -0.3616
   409     8     5.9705    -3.2960    -5.7274     0.2366    -0.4375    -0.1116
   410     8     4.5106    -5.8247    -1.1456     0.2366    -0.4375     0.1384
   411     8     3.0506    -8.3534     3.4363     0.2366    -0.4375     0.3884
   412     8     7.4305    -0.7673   -10.3092     0.2366    -0.4375    -0.3616
   413     8     4.5106    -0.7673    -1.1456     0.2366    -0.1875    -0.1116
   414     8     3.0506    -3.2960     3.4363     0.2366    -0.1875     0.1384
   415     8     1.5907    -5.8247     8.0181     0.2366    -0.1875     0.3884
   416     8     5.9705     1.7614    -5.7274     0.2366    -0.1875    -0.3616
   417     8     5.9705     1.7614     8.0181     0.4866     0.0625    -0.1116
   418     8     4.5106    -0.7673    12.5999     0.4866     0.0625     0.1384
   419     8     3.0506    -3.2960    17.1817     0.4866     0.0625     0.3884
   420     8     7.4305     4.2901     3.4363     0.4866     0.0625    -0.3616
   421     8     4.5106     4.2901    12.5999     0.4866     0.3125    -0.1116
   422     8     3.0506     1.7614    17.1817     0.4866     0.3125     0.1384
   423     8     1.5907    -0.7673    21.7635     0.4866     0.3125     0.3884
   424     8     5.9705     6.8188     8.0181     0.4866     0.3125    -0.3616
   425     8     8.8904    -3.2960    -1.1456     0.4866    -0.4375    -0.1116
   426     8     7.4305    -5.8247     3.4363     0.4866    -0.4375     0.1384
   427     8     5.9705    -8.3534     8.0181     0.4866    -0.4375     0.3884
   428     8    10.3504    -0.7673    -5.7274     0.4866    -0.4375    -0.3616
   429     8     7.4305    -0.7673     3.4363     0.4866    -0.1875    -0.1116
   430     8     5.9705    -3.2960     8.0181     0.4866    -0.1875     0.1384
   431     8     4.5106    -5.8247    12.5999     0.4866    -0.1875     0.3884
   432     8     8.8904     1.7614    -1.1456     0.4866    -0.1875    -0.3616
   433     8    -2.7892     1.7614    -5.7274    -0.2634     0.0625    -0.1116
   434     8    -4.2491    -0.7673    -1.1456    -0.2634     0.0625     0.1384
   435     8    -5.7091    -3.2960     3.4363    -0.2634     0.0625     0.3884
   436     8    -1.3292     4.2901   -10.3092    -0.2634     0.0625    -0.3616
   437     8    -4.2491     4.2901    -1.1456    -0.2634     0.3125    -0.1116
   438     8    -5.7091     1.7614     3.4363    -0.2634     0.3125     0.1384
   439     8    -7.1690    -0.7673     8.0181    -0.2634     0.3125     0.3884
   440     8    -2.7892     6.8188    -5.7274    -0.2634     0.3125    -0.3616
   441     8     0.1307    -3.2960   -14.8910    -0.2634    -0.4375    -0.1116
   442     8    -1.3292    -5.8247   -10.3092    -0.2634    -0.4375     0.1384
   443     8    -2.7892    -8.3534    -5.7274    -0.2634    -0.4375     0.3884
   444     8     1.5907    -0.7673   -19.4728    -0.2634    -0.4375    -0.3616
   445     8    -1.3292    -0.7673   -10.3092    -0.2634    -0.1875    -0.1116
   446     8    -2.7892    -3.2960    -5.7274    -0.2634    -0.1875     0.1384
   447     8    -4.2491    -5.8247    -1.1456    -0.2634    -0.1875     0.3884
   448     8     0.1307     1.7614   -14.8910    -0.2634    -0.1875    -0.3616
   449     8     1.5907     0.7673     1.1454     0.1116     0.0134    -0.0625
   450     8     0.1307    -1.7614     5.7272     0.1116     0.0134     0.1875
   451     8    -1.3292    -4.2901    10.3091     0.1116     0.0134     0.4375
   452     8     3.0506     3.2960    -3.4364     0.1116     0.0134    -0.3125
   453     8     0.1307     3.2960     5.7272     0.1116     0.2634    -0.0625
   454     8    -1.3292     0.7673    10.3091     0.1116     0.2634     0.1875
   455     8    -2.7892    -1.7614    14.8909     0.1116     0.2634     0.4375
   456     8     1.5907     5.8247     1.1454     0.1116     0.2634    -0.3125
   457     8     4.5106    -4.2901    -8.0182     0.1116    -0.4866    -0.0625
   458     8     3.0506    -6.8188    -3.4364     0.1116    -0.4866     0.1875
   459     8     1.5907    -9.3475     1.1454     0.1116    -0.4866     0.4375
   460     8     5.9705    -1.7614   -12.6000     0.1116    -0.4866    -0.3125
   461     8     3.0506    -1.7614    -3.4364     0.1116    -0.2366    -0.0625
   462     8     1.5907    -4.2901     1.1454     0.1116    -0.2366     0.1875
   463     8     0.1307    -6.8188     5.7272     0.1116    -0.2366     0.4375
   464     8     4.5106     0.7673    -8.0182     0.1116    -0.2366    -0.3125
   465     8     4.5106     0.7673     5.7272     0.3616     0.0134    -0.0625
   466     8     3.0506    -1.7614    10.3091     0.3616     0.0134     0.1875
   467     8     1.5907    -4.2901    14.8909     0.3616     0.0134     0.4375
   468     8     5.9705     3.2960     1.1454     0.3616     0.0134    -0.3125
   469     8     3.0506     3.2960    10.3091     0.3616     0.2634    -0.0625
   470     8     1.5907     0.7673    14.8909     0.3616     0.2634     0.1875
   471     8     0.1307    -1.7614    19.4727     0.3616     0.2634     0.4375
   472     8     4.5106     5.8247     5.7272     0.3616     0.2634    -0.3125
   473     8     7.4305    -4.2901    -3.4364     0.3616    -0.4866    -0.0625
   474     8     5.9705    -6.8188     1.1454     0.3616    -0.4866     0.1875
   475     8     4.5106    -9.3475     5.7272     0.3616    -0.4866     0.4375
   476     8     8.8904    -1.7614    -8.0182     0.3616    -0.4866    -0.3125
   477     8     5.9705    -1.7614     1.1454     0.3616    -0.2366    -0.0625
   478     8     4.5106    -4.2901     5.7272     0.3616    -0.2366     0.1875
   479     8     3.0506    -6.8188    10.3091     0.3616    -0.2366     0.4375
   480     8     7.4305     0.7673    -3.4364     0.3616    -0.2366    -0.3125
   481     8    -4.2491     0.7673    -8.0182    -0.3884     0.0134    -0.0625
   482     8    -5.7091    -1.7614    -3.4364    -0.3884     0.0134     0.1875
   483     8    -7.1690    -4.2901     1.1454    -0.3884     0.0134     0.4375
   484     8    -2.7892     3.2960   -12.6000    -0.3884     0.0134    -0.3125
   485     8    -5.7091     3.2960    -3.4364    -0.3884     0.2634    -0.0625
   486     8    -7.1690     0.7673     1.1454    -0.3884     0.2634     0.1875
   487     8    -8.6290    -1.7614     5.7272    -0.3884     0.2634     0.4375
   488     8    -4.2491     5.8247    -8.0182    -0.3884     0.2634    -0.3125
   489     8    -1.3292    -4.2901   -17.1818    -0.3884    -0.4866    -0.0625
   490     8    -2.7892    -6.8188   -12.6000    -0.3884    -0.4866     0.1875
   491     8    -4.2491    -9.3475    -8.0182    -0.3884    -0.4866     0.4375
   492     8     0.1307    -1.7614   -21.7637    -0.3884    -0.4866    -0.3125
   493     8    -2.7892    -1.7614   -12.6000    -0.3884    -0.2366    -0.0625
   494     8    -4.2491    -4.2901    -8.0182    -0.3884    -0.2366     0.1875
   495     8    -5.7091    -6.8188    -3.4364    -0.3884    -0.2366     0.4375
   496     8    -1.3292     0.7673   -17.1818    -0.3884    -0.2366    -0.3125
   497     8    -1.3292     0.7673    -3.4364    -0.1384     0.0134    -0.0625
   498     8    -2.7892    -1.7614     1.1454    -0.1384     0.0134     0.1875
   499     8    -4.2491    -4.2901     5.7272    -0.1384     0.0134     0.4375
   500     8     0.1307     3.2960    -8.0182    -0.1384     0.0134    -0.3125
   501     8    -2.7892     3.2960     1.1454    -0.1384     0.2634    -0.0625
   502     8    -4.2491     0.7673     5.7272    -0.1384     0.2634     0.1875
   503     8    -5.7091    -1.7614    10.3091    -0.1384     0.2634     0.4375
   504     8    -1.3292     5.8247    -3.4364    -0.1384     0.2634    -0.3125
   505     8     1.5907    -4.2901   -12.6000    -0.1384    -0.4866    -0.0625
   506     8     0.1307    -6.8188    -8.0182    -0.1384    -0.4866     0.1875
   507     8    -1.3292    -9.3475    -3.4364    -0.1384    -0.4866     0.4375
   508     8     3.0506    -1.7614   -17.1818    -0.1384    -0.4866    -0.3125
   509     8     0.1307    -1.7614    -8.0182    -0.1384    -0.2366    -0.0625
   510     8    -1.3292    -4.2901    -3.4364    -0.1384    -0.2366     0.1875
   511     8    -2.7892    -6.8188     1.1454    -0.1384    -0.2366     0.4375
   512     8     1.5907     0.7673   -12.6000    -0.1384    -0.2366    -0.3125
   513     8    -1.4599     0.9939     1.1454    -0.0625     0.1116     0.0134
   514     8    -2.9198    -1.5348     5.7272    -0.0625     0.1116     0.2634
   515     8     1.4600     6.0513    -8.0182    -0.0625     0.1116    -0.4866
   516     8     0.0001     3.5226    -3.4364    -0.0625     0.1116    -0.2366
   517     8    -2.9198     3.5226     5.7272    -0.0625     0.3616     0.0134
   518     8    -4.3797     0.9939    10.3091    -0.0625     0.3616     0.2634
   519     8     0.0001     8.5800    -3.4364    -0.0625     0.3616    -0.4866
   520     8    -1.4599     6.0513     1.1454    -0.0625     0.3616    -0.2366
   521     8     1.4600    -4.0635    -8.0182    -0.0625    -0.3884     0.0134
   522     8     0.0001    -6.5922    -3.4364    -0.0625    -0.3884     0.2634
   523     8     4.3799     0.9939   -17.1818    -0.0625    -0.3884    -0.4866
   524     8     2.9200    -1.5348   -12.6000    -0.0625    -0.3884    -0.2366
   525     8     0.0001    -1.5348    -3.4364    -0.0625    -0.1384     0.0134
   526     8    -1.4599    -4.0635     1.1454    -0.0625    -0.1384     0.2634
   527     8     2.9200     3.5226   -12.6000    -0.0625    -0.1384    -0.4866
   528     8     1.4600     0.9939    -8.0182    -0.0625    -0.1384    -0.2366
   529     8     1.4600     0.9939     5.7272     0.1875     0.1116     0.0134
   530     8     0.0001    -1.5348    10.3091     0.1875     0.1116     0.2634
   531     8     4.3799     6.0513    -3.4364     0.1875     0.1116    -0.4866
   532     8     2.9200     3.5226     1.1454     0.1875     0.1116    -0.2366
   533     8     0.0001     3.5226    10.3091     0.1875     0.3616     0.0134
   534     8    -1.4599     0.9939    14.8909     0.1875     0.3616     0.2634
   535     8     2.9200     8.5800     1.1454     0.1875     0.3616    -0.4866
   536     8     1.4600     6.0513     5.7272     0.1875     0.3616    -0.2366
   537     8     4.3799    -4.0635    -3.4364     0.1875    -0.3884     0.0134
   538     8     2.9200    -6.5922     1.1454     0.1875    -0.3884     0.2634
   539     8     7.2998     0.9939   -12.6000     0.1875    -0.3884    -0.4866
   540     8     5.8399    -1.5348    -8.0182     0.1875    -0.3884    -0.2366
   541     8     2.9200    -1.5348     1.1454     0.1875    -0.1384     0.0134
   542     8     1.4600    -4.0635     5.7272     0.1875    -0.1384     0.2634
   543     8     5.8399     3.5226    -8.0182     0.1875    -0.1384    -0.4866
   544     8     4.3799     0.9939    -3.4364     0.1875    -0.1384    -0.2366
   545     8     4.3799     0.9939    10.3091     0.4375     0.1116     0.0134
   546     8     2.9200    -1.5348    14.8909     0.4375     0.1116     0.2634
   547     8     7.2998     6.0513     1.1454     0.4375     0.1116    -0.4866
   548     8     5.8399     3.5226     5.7272     0.4375     0.1116    -0.2366
   549     8     2.9200     3.5226    14.8909     0.4375     0.3616     0.0134
   550     8     1.4600     0.9939    19.4727     0.4375     0.3616     0.2634
   551     8     5.8399     8.5800     5.7272     0.4375     0.3616    -0.4866
   552     8     4.3799     6.0513    10.3091     0.4375     0.3616    -0.2366
   553     8     7.2998    -4.0635     1.1454     0.4375    -0.3884     0.0134
   554     8     5.8399    -6.5922     5.7272     0.4375    -0.3884     0.2634
   555     8    10.2197     0.9939    -8.0182     0.4375    -0.3884    -0.4866
   556     8     8.7598    -1.5348    -3.4364     0.4375    -0.3884    -0.2366
   557     8     5.8399    -1.5348     5.7272     0.4375    -0.1384     0.0134
   558     8     4.3799    -4.0635    10.3091     0.4375    -0.1384     0.2634
   559     8     8.7598     3.5226    -3.4364     0.4375    -0.1384    -0.4866
   560     8     7.2998     0.9939     1.1454     0.4375    -0.1384    -0.2366
   561     8    -4.3797     0.9939    -3.4364    -0.3125     0.1116     0.0134
   562     8    -5.8397    -1.5348     1.1454    -0.3125     0.1116     0.2634
   563     8    -1.4599     6.0513   -12.6000    -0.3125     0.1116    -0.4866
   564     8    -2.9198     3.5226    -8.0182    -0.3125     0.1116    -0.2366
   565     8    -5.8397     3.5226     1.1454    -0.3125     0.3616     0.0134
   566     8    -7.2996     0.9939     5.7272    -0.3125     0.3616     0.2634
   567     8    -2.9198     8.5800    -8.0182    -0.3125     0.3616    -0.4866
   568     8    -4.3797     6.0513    -3.4364    -0.3125     0.3616    -0.2366
   569     8    -1.4599    -4.0635   -12.6000    -0.3125    -0.3884     0.0134
   570     8    -2.9198    -6.5922    -8.0182    -0.3125    -0.3884     0.2634
   571     8     1.4600     0.9939   -21.7637    -0.3125    -0.3884    -0.4866
   572     8     0.0001    -1.5348   -17.1818    -0.3125    -0.3884    -0.2366
   573     8    -2.9198    -1.5348    -8.0182    -0.3125    -0.1384     0.0134
   574     8    -4.3797    -4.0635    -3.4364    -0.3125    -0.1384     0.2634
   575     8     0.0001     3.5226   -17.1818    -0.3125    -0.1384    -0.4866
   576     8    -1.4599     0.9939   -12.6000    -0.3125    -0.1384    -0.2366
   577     8    -0.1308    -1.7612     1.1454     0.0134    -0.0625     0.1116
   578     8    -1.5908    -4.2899     5.7272     0.0134    -0.0625     0.3616
   579     8     2.7891     3.2962    -8.0182     0.0134    -0.0625    -0.3884
   580     8     1.3291     0.7675    -3.4364     0.0134    -0.0625    -0.1384
   581     8    -1.5908     0.7675     5.7272     0.0134     0.1875     0.1116
   582     8    -3.0507    -1.7612    10.3091     0.0134     0.1875     0.3616
   583     8     1.3291     5.8249    -3.4364     0.0134     0.1875    -0.3884
   584     8    -0.1308     3.2962     1.1454     0.0134     0.1875    -0.1384
   585     8    -3.0507     3.2962    10.3091     0.0134     0.4375     0.1116
   586     8    -4.5107     0.7675    14.8909     0.0134     0.4375     0.3616
   587     8    -0.1308     8.3536     1.1454     0.0134     0.4375    -0.3884
   588     8    -1.5908     5.8249     5.7272     0.0134     0.4375    -0.1384
   589     8     1.3291    -4.2899    -3.4364     0.0134    -0.3125     0.1116
   590     8    -0.1308    -6.8186     1.1454     0.0134    -0.3125     0.3616
   591     8     4.2490     0.7675   -12.6000     0.0134    -0.3125    -0.3884
   592     8     2.7891    -1.7612    -8.0182     0.0134    -0.3125    -0.1384
   593     8     2.7891    -1.7612     5.7272     0.2634    -0.0625     0.1116
   594     8     1.3291    -4.2899    10.3091     0.2634    -0.0625     0.3616
   595     8     5.7090     3.2962    -3.4364     0.2634    -0.0625    -0.3884
   596     8     4.2490     0.7675     1.1454     0.2634    -0.0625    -0.1384
   597     8     1.3291     0.7675    10.3091     0.2634     0.1875     0.1116
   598     8    -0.1308    -1.7612    14.8909     0.2634     0.1875     0.3616
   599     8     4.2490     5.8249     1.1454     0.2634     0.1875    -0.3884
   600     8     2.7891     3.2962     5.7272     0.2634     0.1875    -0.1384
   601     8    -0.1308     3.2962    14.8909     0.2634     0.4375     0.1116
   602     8    -1.5908     0.7675    19.4727     0.2634     0.4375     0.3616
   603     8     2.7891     8.3536     5.7272     0.2634     0.4375    -0.3884
   604     8     1.3291     5.8249    10.3091     0.2634     0.4375    -0.1384
   605     8     4.2490    -4.2899     1.1454     0.2634    -0.3125     0.1116
   606     8     2.7891    -6.8186     5.7272     0.2634    -0.3125     0.3616
   607     8     7.1689     0.7675    -8.0182     0.2634    -0.3125    -0.3884
   608     8     5.7090    -1.7612    -3.4364     0.2634    -0.3125    -0.1384
   609     8    -5.9706    -1.7612    -8.0182    -0.4866    -0.0625     0.1116
   610     8    -7.4306    -4.2899    -3.4364    -0.4866    -0.0625     0.3616
   611     8    -3.0507     3.2962   -17.1818    -0.4866    -0.0625    -0.3884
   612     8    -4.5107     0.7675   -12.6000    -0.4866    -0.0625    -0.1384
   613     8    -7.4306     0.7675    -3.4364    -0.4866     0.1875     0.1116
   614     8    -8.8905    -1.7612     1.1454    -0.4866     0.1875     0.3616
   615     8    -4.5107     5.8249   -12.6000    -0.4866     0.1875    -0.3884
   616     8    -5.9706     3.2962    -8.0182    -0.4866     0.1875    -0.1384
   617     8    -8.8905     3.2962     1.1454    -0.4866     0.4375     0.1116
   618     8   -10.3505     0.7675     5.7272    -0.4866     0.4375     0.3616
   619     8    -5.9706     8.3536    -8.0182    -0.4866     0.4375    -0.3884
   620     8    -7.4306     5.8249    -3.4364    -0.4866     0.4375    -0.1384
   621     8    -4.5107    -4.2899   -12.6000    -0.4866    -0.3125     0.1116
   622     8    -5.9706    -6.8186    -8.0182    -0.4866    -0.3125     0.3616
   623     8    -1.5908     0.7675   -21.7637    -0.4866    -0.3125    -0.3884
   624     8    -3.0507    -1.7612   -17.1818    -0.4866    -0.3125    -0.1384
   625     8    -3.0507    -1.7612    -3.4364    -0.2366    -0.0625     0.1116
   626     8    -4.5107    -4.2899     1.1454    -0.2366    -0.0625     0.3616
   627     8    -0.1308     3.2962   -12.6000    -0.2366    -0.0625    -0.3884
   628     8    -1.5908     0.7675    -8.0182    -0.2366    -0.0625    -0.1384
   629     8    -4.5107     0.7675     1.1454    -0.2366     0.1875     0.1116
   630     8    -5.9706    -1.7612     5.7272    -0.2366     0.1875     0.3616
   631     8    -1.5908     5.8249    -8.0182    -0.2366     0.1875    -0.3884
   632     8    -3.0507     3.2962    -3.4364    -0.2366     0.1875    -0.1384
   633     8    -5.9706     3.2962     5.7272    -0.2366     0.4375     0.1116
   634     8    -7.4306     0.7675    10.3091    -0.2366     0.4375     0.3616
   635     8    -3.0507     8.3536    -3.4364    -0.2366     0.4375    -0.3884
   636     8    -4.5107     5.8249     1.1454    -0.2366     0.4375    -0.1384
   637     8    -1.5908    -4.2899    -8.0182    -0.2366    -0.3125     0.1116
   638     8    -3.0507    -6.8186    -3.4364    -0.2366    -0.3125     0.3616
   639     8     1.3291     0.7675   -17.1818    -0.2366    -0.3125    -0.3884
   640     8    -0.1308    -1.7612   -12.6000    -0.2366    -0.3125    -0.1384

 **************************** SUPERCELL GENERATED ****************************

 COORDINATES IN ANGSTROM

 GCALCO - MAX INDICES DIRECT LATTICE VECTOR    14    14    14
 NO.OF VECTORS CREATED 6999 STARS  522 RMAX   222.10953 BOHR

 *******************************************************************************
 * CLUSTER CALCULATION
 *******************************************************************************


 THE CENTRE OF THE CLUSTER IS THE POINT (A):   0.500   0.500   0.500
 MAXIMUM NUMBER OF STARS                   : 240
 MAXIMUM RADIUS (A)                        :   8.000

 CLUSTER OF 215  ATOMS - DISTANCE REFERS TO THE CENTRE OF THE CLUSTER
  SEQ.  NO. 
  NEW   OLD    CELL   AT. NO.             COORD.(A)          DISTANCE
   1   449    0  0  0    8       1.5907    0.7673    1.1454     1.2952
   2   129    0  0  0   26       0.0000    0.0000    1.9756     1.6362
   3   385    0  0  0    8       0.1307    1.7614   -1.1456     2.1060
   4   513    0  0  0    8      -1.4599    0.9939    1.1454     2.1217
   5     8    0  0  0   26       1.4599    2.5287    0.3154     2.2519
   6   321    0  0  0    8       1.4600   -0.9939   -1.1456     2.4210
   7   577    0  0  0    8      -0.1308   -1.7612    1.1454     2.4347
   8    65    0  0  0   26       0.0000    0.0000   -1.9754     2.5744
   9   212    0  0  0   26       2.9199    0.0000   -0.3152     2.6020
  10   200    0  0  0   26      -1.4599    2.5287   -0.3152     2.9363
  11   584    0  0  0    8      -0.1308    3.2962    1.1454     2.9382
  12   257    0  0  0    8      -1.5908   -0.7675   -1.1456     2.9471
  13   276    0  0  0    8       2.7891    1.7612   -1.1456     3.0884
  14   325    0  0  0    8       0.0001    1.5348    3.4363     3.1531
  15     1    0  0  0   26       1.4599   -2.5287    0.3154     3.1825
  16   541    0  0  0    8       2.9200   -1.5348    1.1454     3.2270
  17    81    0  0  0   26       2.9199    0.0000    2.6064     3.2470
  18   273    0  0  0    8       1.3291   -0.7675    3.4363     3.3039
  19    53    0  0  0   26      -2.9199    0.0000    0.3154     3.4612
  20    69    0  0  0   26      -1.4599    2.5287    2.6064     3.5205
  21   386    0  0  0    8      -1.3292   -0.7673    3.4363     3.6843
  22   193    0  0  0   26      -1.4599   -2.5287   -0.3152     3.6985
  23   596    0  0  0    8       4.2490    0.7675    1.1454     3.8136
  24   132    0  0  0   26       1.4599    2.5287   -2.6063     3.8322
  25   532    0  0  0    8       2.9200    3.5226    1.1454     3.9255
  26   373    0  0  0    8      -2.9198    1.5348   -1.1456     3.9337
  27   580    0  0  0    8       1.3291    0.7675   -3.4364     4.0316
  28   328    0  0  0    8       1.4600    4.0635   -1.1456     4.0408
  29   498    0  0  0    8      -2.7892   -1.7614    1.1454     4.0434
  30   401    0  0  0    8       3.0506    1.7614    3.4363     4.0888
  31   398    0  0  0    8       0.1307   -3.2960   -1.1456     4.1538
  32    66    0  0  0   26      -1.4599   -2.5287    2.6064     4.1775
  33   497    0  0  0    8      -1.3292    0.7673   -3.4364     4.3489
  34   501    0  0  0    8      -2.7892    3.2960    1.1454     4.3650
  35   216    0  0  0   26       1.4599    2.5287    4.2666     4.3845
  36   141    0  0  0   26       1.4599   -2.5287   -2.6063     4.4434
  37     5    0  0  0   26       0.0000    0.0000    4.8972     4.4537
  38   525    0  0  0    8       0.0001   -1.5348   -3.4364     4.4593
  39   413    0  0  0    8       4.5106   -0.7673   -1.1456     4.5165
  40   148    0  0  0   26       4.3798    2.5287    1.9756     4.6202
  41   264    0  0  0    8      -1.5908    4.2899   -1.1456     4.6306
  42   177    0  0  0   26      -2.9199    0.0000   -2.6063     4.6470
  43   285    0  0  0    8       2.7891   -3.2962   -1.1456     4.7285
  44   261    0  0  0    8      -3.0507    1.7612    3.4363     4.7770
  45   136    0  0  0   26       0.0000    5.0574    1.9756     4.8164
  46   280    0  0  0    8       1.3291    4.2899    3.4363     4.8655
  47   209    0  0  0   26       1.4599   -2.5287    4.2666     4.9276
  48   462    0  0  0    8       1.5907   -4.2901    1.1454     4.9549
  49   516    0  0  0    8       0.0001    3.5226   -3.4364     4.9881
  50   322    0  0  0    8       0.0001   -3.5226    3.4363     5.0053
  51   526    0  0  0    8      -1.4599   -4.0635    1.1454     5.0083
  52    84    0  0  0   26       4.3798    2.5287   -1.9754     5.0295
  53   629    0  0  0    8      -4.5107    0.7675    1.1454     5.0591
  54   337    0  0  0    8       4.3799   -0.9939    3.4363     5.0899
  55   197    0  0  0   26      -2.9199    0.0000    4.2666     5.1120
  56   389    0  0  0    8      -1.3292    4.2901    3.4363     5.1315
  57   157    0  0  0   26       4.3798   -2.5287    1.9756     5.1384
  58   434    0  0  0    8      -4.2491   -0.7673   -1.1456     5.1834
  59   461    0  0  0    8       3.0506   -1.7614   -3.4364     5.2072
  60    72    0  0  0   26       0.0000    5.0574   -1.9754     5.2103
  61   215    0  0  0   26       2.9199    5.0574   -0.3152     5.2240
  62   529    0  0  0    8       1.4600    0.9939    5.7272     5.3376
  63    20    0  0  0   26       5.8398    0.0000    0.3154     5.3663
  64     4    0  0  0   26       2.9199    0.0000   -4.2664     5.3688
  65   414    0  0  0    8       3.0506   -3.2960    3.4363     5.4348
  66   196    0  0  0   26       0.0000    0.0000   -4.8971     5.4432
  67   452    0  0  0    8       3.0506    3.2960   -3.4364     5.4606
  68   456    0  0  0    8       1.5907    5.8247    1.1454     5.4735
  69   181    0  0  0   26      -4.3798    2.5287    1.9756     5.4869
  70    93    0  0  0   26       4.3798   -2.5287   -1.9754     5.5094
  71   370    0  0  0    8      -2.9198   -3.5226   -1.1456     5.5303
  72    56    0  0  0   26      -1.4599    2.5287   -4.2664     5.5385
  73   544    0  0  0    8       4.3799    0.9939   -3.4364     5.5491
  74    88    0  0  0   26       2.9199    5.0574    2.6064     5.5734
  75   581    0  0  0    8      -1.5908    0.7675    5.7272     5.6362
  76   340    0  0  0    8       5.8399    1.5348   -1.1456     5.6827
  77    60    0  0  0   26      -2.9199    5.0574    0.3154     5.7009
  78   450    0  0  0    8       0.1307   -1.7614    5.7272     5.7074
  79   404    0  0  0    8       4.5106    4.2901   -1.1456     5.7582
  80   625    0  0  0    8      -3.0507   -1.7612   -3.4364     5.7633
  81   142    0  0  0   26       0.0000   -5.0574    1.9756     5.7717
  82   117    0  0  0   26      -4.3798    2.5287   -1.9754     5.8357
  83   374    0  0  0    8      -4.3798   -0.9939    3.4363     5.8877
  84   520    0  0  0    8      -1.4599    6.0513    1.1454     5.9224
  85   178    0  0  0   26      -4.3798   -2.5287    1.9756     5.9299
  86   453    0  0  0    8       0.1307    3.2960    5.7272     5.9395
  87   477    0  0  0    8       5.9705   -1.7614    1.1454     5.9546
  88   258    0  0  0    8      -3.0507   -3.2962    3.4363     5.9699
  89    49    0  0  0   26      -1.4599   -2.5287   -4.2664     5.9777
  90   632    0  0  0    8      -3.0507    3.2962   -3.4364     5.9934
  91   344    0  0  0    8       4.3799    4.0635    3.4363     6.0311
  92    78    0  0  0   26       0.0000   -5.0574   -1.9754     6.1043
  93   292    0  0  0    8       5.7090    1.7612    3.4363     6.1111
  94   221    0  0  0   26       2.9199   -5.0574   -0.3152     6.1160
  95   605    0  0  0    8       4.2490   -4.2899    1.1454     6.1168
  96   593    0  0  0    8       2.7891   -1.7612    5.7272     6.1382
  97   468    0  0  0    8       5.9705    3.2960    1.1454     6.1775
  98   160    0  0  0   26       5.8398    0.0000   -2.6063     6.1978
  99    24    0  0  0   26       4.3798    2.5287    4.8972     6.2052
 100   114    0  0  0   26      -4.3798   -2.5287   -1.9754     6.2541
 101   589    0  0  0    8       1.3291   -4.2899   -3.4364     6.2551
 102   561    0  0  0    8      -4.3797    0.9939   -3.4364     6.2890
 103   437    0  0  0    8      -4.2491    4.2901   -1.1456     6.2950
 104    12    0  0  0   26       0.0000    5.0574    4.8972     6.3526
 105   600    0  0  0    8       2.7891    3.2962    5.7272     6.3547
 106   260    0  0  0    8      -0.1308    1.7612   -5.7274     6.3850
 107   245    0  0  0   26      -5.8398    0.0000   -0.3152     6.4115
 108    94    0  0  0   26       2.9199   -5.0574    2.6064     6.4170
 109   397    0  0  0    8       1.5907   -0.7673   -5.7274     6.4479
 110   510    0  0  0    8      -1.3292   -4.2901   -3.4364     6.4642
 111   184    0  0  0   26      -2.9199    5.0574   -2.6063     6.4896
 112    50    0  0  0   26      -2.9199   -5.0574    0.3154     6.5280
 113   392    0  0  0    8       0.1307    6.8188   -1.1456     6.5400
 114   145    0  0  0   26       2.9199    0.0000    6.5574     6.5420
 115   599    0  0  0    8       4.2490    5.8249    1.1454     6.5442
 116   228    0  0  0   26       5.8398    0.0000    4.2666     6.5537
 117   514    0  0  0    8      -2.9198   -1.5348    5.7272     6.5696
 118   465    0  0  0    8       4.5106    0.7673    5.7272     6.5940
 119    17    0  0  0   26       4.3798   -2.5287    4.8972     6.6002
 120   583    0  0  0    8       1.3291    5.8249   -3.4364     6.6736
 121   133    0  0  0   26      -1.4599    2.5287    6.5574     6.6820
 122   562    0  0  0    8      -5.8397   -1.5348    1.1454     6.6894
 123   369    0  0  0    8      -1.4599   -0.9939   -5.7274     6.6972
 124   118    0  0  0   26      -5.8398    0.0000    2.6064     6.6993
 125   377    0  0  0    8      -4.3798    4.0635    3.4363     6.7180
 126   324    0  0  0    8       2.9200    1.5348   -5.7274     6.7607
 127   332    0  0  0    8       0.0001    6.5922    3.4363     6.7813
 128   309    0  0  0    8      -5.9706    1.7612   -1.1456     6.7947
 129   334    0  0  0    8       1.4600   -6.0513   -1.1456     6.8227
 130   204    0  0  0   26      -2.9199    5.0574    4.2666     6.8303
 131   560    0  0  0    8       7.2998    0.9939    1.1454     6.8482
 132   270    0  0  0    8      -1.5908   -5.8249   -1.1456     6.8617
 133   504    0  0  0    8      -1.3292    5.8247   -3.4364     6.8698
 134    57    0  0  0   26      -4.3798    2.5287    4.8972     6.8749
 135   349    0  0  0    8       5.8399   -3.5226   -1.1456     6.8850
 136   608    0  0  0    8       5.7090   -1.7612   -3.4364     6.9095
 137   279    0  0  0    8       2.7891    6.8186   -1.1456     6.9190
 138   517    0  0  0    8      -2.9198    3.5226    5.7272     6.9394
 139   211    0  0  0   26       4.3798    2.5287   -4.8971     6.9496
 140   626    0  0  0    8      -4.5107   -4.2899    1.1454     6.9618
 141   438    0  0  0    8      -5.7091    1.7614    3.4363     6.9832
 142   304    0  0  0    8       7.1689   -0.7675   -1.1456     6.9849
 143   542    0  0  0    8       1.4600   -4.0635    5.7272     7.0051
 144   286    0  0  0    8       1.3291   -5.8249    3.4363     7.0223
 145    23    0  0  0   26       5.8398    5.0574    0.3154     7.0226
 146     7    0  0  0   26       2.9199    5.0574   -4.2664     7.0245
 147   130    0  0  0   26      -1.4599   -2.5287    6.5574     7.0503
 148   565    0  0  0    8      -5.8397    3.5226    1.1454     7.0530
 149    85    0  0  0   26       1.4599    2.5287    7.1883     7.0548
 150   502    0  0  0    8      -4.2491    0.7673    5.7272     7.0675
 151   199    0  0  0   26       0.0000    5.0574   -4.8971     7.0815
 152   301    0  0  0    8       5.7090   -3.2962    3.4363     7.0828
 153   595    0  0  0    8       5.7090    3.2962   -3.4364     7.1026
 154     2    0  0  0   26       0.0000   -5.0574    4.8972     7.1043
 155   227    0  0  0   26       7.2997    2.5287   -0.3152     7.1426
 156    11    0  0  0   26       1.4599    7.5861    0.3154     7.1532
 157   433    0  0  0    8      -2.7892    1.7614   -5.7274     7.1547
 158   537    0  0  0    8       4.3799   -4.0635   -3.4364     7.1676
 159   380    0  0  0    8      -2.9198    6.5922   -1.1456     7.1776
 160   399    0  0  0    8      -1.3292   -5.8247    3.4363     7.2090
 161   190    0  0  0   26      -2.9199   -5.0574   -2.6063     7.2270
 162    54    0  0  0   26      -4.3798   -2.5287    4.8972     7.2334
 163   224    0  0  0   26       4.3798   -2.5287   -4.8971     7.3044
 164   269    0  0  0    8      -0.1308   -3.2962   -5.7274     7.3205
 165   636    0  0  0    8      -4.5107    5.8249    1.1454     7.3402
 166   388    0  0  0    8       1.5907    4.2901   -5.7274     7.3712
 167   590    0  0  0    8      -0.1308   -6.8186    1.1454     7.3741
 168   288    0  0  0    8       4.2490   -0.7675   -5.7274     7.3785
 169   578    0  0  0    8      -1.5908   -4.2899    5.7272     7.3918
 170   203    0  0  0   26      -1.4599    7.5861   -0.3152     7.3972
 171   100    0  0  0   26       7.2997    2.5287    2.6064     7.4020
 172    82    0  0  0   26       1.4599   -2.5287    7.1883     7.4046
 173    68    0  0  0   26       1.4599    2.5287   -6.5572     7.4055
 174   408    0  0  0    8       3.0506    6.8188    3.4363     7.4199
 175   376    0  0  0    8      -1.4599    4.0635   -5.7274     7.4377
 176   240    0  0  0   26       7.2997   -2.5287   -0.3152     7.4883
 177   538    0  0  0    8       2.9200   -6.5922    1.1454     7.5214
 178    70    0  0  0   26      -2.9199    0.0000    7.1883     7.5285
 179   194    0  0  0   26      -2.9199   -5.0574    4.2666     7.5344
 180   248    0  0  0   26      -4.3798    2.5287   -4.8971     7.5536
 181   429    0  0  0    8       7.4305   -0.7673    3.4363     7.6328
 182    76    0  0  0   26      -1.4599    7.5861    2.6064     7.6480
 183   277    0  0  0    8      -0.1308    1.7612    8.0181     7.6492
 184   410    0  0  0    8       4.5106   -5.8247   -1.1456     7.6678
 185   147    0  0  0   26       5.8398    5.0574   -2.6063     7.6767
 186   306    0  0  0    8      -5.9706   -3.2962   -1.1456     7.6803
 187   536    0  0  0    8       1.4600    6.0513    5.7272     7.6852
 188   482    0  0  0    8      -5.7091   -1.7614   -3.4364     7.6916
 189   486    0  0  0    8      -7.1690    0.7673    1.1454     7.7008
 190   402    0  0  0    8       1.5907   -0.7673    8.0181     7.7018
 191    29    0  0  0   26       5.8398   -5.0574    0.3154     7.7092
 192    13    0  0  0   26       2.9199   -5.0574   -4.2664     7.7110
 193   109    0  0  0   26       7.2997   -2.5287    2.6064     7.7361
 194    77    0  0  0   26       1.4599   -2.5287   -6.5572     7.7394
 195   557    0  0  0    8       5.8399   -1.5348    5.7272     7.7446
 196   588    0  0  0    8      -1.5908    5.8249    5.7272     7.7492
 197   574    0  0  0    8      -4.3797   -4.0635   -3.4364     7.7545
 198   205    0  0  0   26       0.0000   -5.0574   -4.8971     7.7629
 199   135    0  0  0   26       1.4599    7.5861   -2.6063     7.7964
 200   333    0  0  0    8       2.9200   -3.5226   -5.7274     7.7986
 201   268    0  0  0    8      -3.0507    6.8186    3.4363     7.8201
 202   531    0  0  0    8       4.3799    6.0513   -3.4364     7.8337
 203   291    0  0  0    8       7.1689    4.2899   -1.1456     7.8451
 204   435    0  0  0    8      -5.7091   -3.2960    3.4363     7.8475
 205   252    0  0  0   26      -5.8398    5.0574   -0.3152     7.8503
 206   113    0  0  0   26      -2.9199    0.0000   -6.5572     7.8581
 207   485    0  0  0    8      -5.7091    3.2960   -3.4364     7.8654
 208   241    0  0  0   26      -4.3798   -2.5287   -4.8971     7.8813
 209   587    0  0  0    8      -0.1308    8.3536    1.1454     7.9053
 210   326    0  0  0    8      -1.4599   -0.9939    8.0181     7.9117
 211    37    0  0  0   26      -5.8398    0.0000   -4.2664     7.9474
 212   152    0  0  0   26       2.9199    5.0574    6.5574     7.9572
 213   341    0  0  0    8       2.9200    1.5348    8.0181     7.9655
 214   231    0  0  0   26       5.8398    5.0574    4.2666     7.9668
 215   480    0  0  0    8       7.4305    0.7673   -3.4364     7.9748

 NEIGHBOR ANALYSIS NOT REQUESTED

 *******************************************************************************


 NO SYMMOPS WITH FINITE TRANSLATIONAL COMPONENT
 THE NUMBER OF SYMMETRY OPERATORS HAS BEEN REDUCED FROM  3 TO  1
 *******************************************************************************

 GEOMETRY FOR WAVE FUNCTION - DIMENSIONALITY OF THE SYSTEM    0
 (NON PERIODIC DIRECTION: LATTICE PARAMETER FORMALLY SET TO 500)
 *******************************************************************************
 ATOMS IN THE ASYMMETRIC UNIT  215 - ATOMS IN THE UNIT CELL:  215
     ATOM          X(ANGSTROM)         Y(ANGSTROM)         Z(ANGSTROM)
 *******************************************************************************
   1 T   8 O     1.590683135649E+00  7.673117924820E-01  1.145429402472E+00
   2 T  26 FE    1.110223024625E-16  0.000000000000E+00  1.975558387362E+00
   3 T   8 O     1.307359488201E-01  1.761389581057E+00 -1.145554069372E+00
   4 T   8 O    -1.459853072737E+00  9.939161086018E-01  1.145429402472E+00
   5 T  26 FE    1.459947861333E+00  2.528703872230E+00  3.154305792000E-01
   6 T   8 O     1.460040148747E+00 -9.939154433939E-01 -1.145554069372E+00
   7 T   8 O    -1.308300629121E-01 -1.761227901084E+00  1.145429402472E+00
   8 T  26 FE   -5.551115123126E-17  0.000000000000E+00 -1.975371237996E+00
   9 T  26 FE    2.919895722667E+00  0.000000000000E+00 -3.152437278920E-01
  10 T  26 FE   -1.459947861333E+00  2.528703872230E+00 -3.152437278920E-01
  11 T   8 O    -1.308300629120E-01  3.296179843376E+00  1.145429402472E+00
  12 T   8 O    -1.590776097567E+00 -7.674741376630E-01 -1.145554069372E+00
  13 T   8 O     2.789067486433E+00  1.761229734567E+00 -1.145554069372E+00
  14 T   8 O     9.228741687654E-05  1.534788428836E+00  3.436261987428E+00
  15 T  26 FE    1.459947861333E+00 -2.528703872230E+00  3.154305792000E-01
  16 T   8 O     2.919990511263E+00 -1.534787763628E+00  1.145429402472E+00
  17 T  26 FE    2.919895722670E+00  0.000000000000E+00  2.606444818804E+00
  18 T   8 O     1.329119625103E+00 -7.674741376630E-01  3.436261987428E+00
  19 T  26 FE   -2.919895722667E+00  0.000000000000E+00  3.154305792000E-01
  20 T  26 FE   -1.459947861330E+00  2.528703872230E+00  2.606444818804E+00
  21 T   8 O    -1.329211912510E+00 -7.673142911731E-01  3.436261987428E+00
  22 T  26 FE   -1.459947861333E+00 -2.528703872230E+00 -3.152437278920E-01
  23 T   8 O     4.249013521088E+00  7.674759711462E-01  1.145429402472E+00
  24 T  26 FE    1.459947861330E+00  2.528703872230E+00 -2.606257669438E+00
  25 T   8 O     2.919990511263E+00  3.522619980832E+00  1.145429402472E+00
  26 T   8 O    -2.919803435253E+00  1.534788428836E+00 -1.145554069372E+00
  27 T   8 O     1.329117798418E+00  7.674759711462E-01 -3.436386654328E+00
  28 T   8 O     1.460040148747E+00  4.063492301066E+00 -1.145554069372E+00
  29 T   8 O    -2.789160448351E+00 -1.761392079748E+00  1.145429402472E+00
  30 T   8 O     3.050631671490E+00  1.761389581057E+00  3.436261987428E+00
  31 T   8 O     1.307359488201E-01 -3.296018163403E+00 -1.145554069372E+00
  32 T  26 FE   -1.459947861330E+00 -2.528703872230E+00  2.606444818804E+00
[...]

 156 FE   2     1.9515     3.6879  68 O    0 0 0 209 O    0 0 0
 156 FE   2     2.1190     4.0043 113 O    0 0 0 137 O    0 0 0
 156 FE   1     2.9217     5.5212 199 FE   0 0 0
 156 FE   2     2.9872     5.6450  61 FE   0 0 0 170 FE   0 0 0
 156 FE   1     3.3588     6.3473  45 FE   0 0 0
 156 FE   2     3.4014     6.4278  84 O    0 0 0 115 O    0 0 0

 157 O    1     1.9515     3.6877 206 FE   0 0 0
 157 O    1     1.9515     3.6879 180 FE   0 0 0
 157 O    1     2.1190     4.0043  72 FE   0 0 0
 157 O    2     2.6583     5.0235 106 O    0 0 0 175 O    0 0 0
 157 O    1     2.7699     5.2344  90 O    0 0 0
 157 O    1     2.8927     5.4664 102 O    0 0 0

 158 O    1     1.9515     3.6879 192 FE   0 0 0
 158 O    1     2.1188     4.0039 163 FE   0 0 0
 158 O    1     2.1190     4.0043  70 FE   0 0 0
 158 O    2     2.6583     5.0235  59 O    0 0 0 136 O    0 0 0
 158 O    1     2.7698     5.2342 135 O    0 0 0
 158 O    1     2.7699     5.2344 200 O    0 0 0

 159 O    1     1.9515     3.6879 170 FE   0 0 0
 159 O    1     2.1188     4.0039 111 FE   0 0 0
 159 O    1     2.1190     4.0043  77 FE   0 0 0
 159 O    2     2.6583     5.0235  41 O    0 0 0 103 O    0 0 0
 159 O    1     2.7699     5.2344  84 O    0 0 0
 159 O    1     2.8926     5.4661 133 O    0 0 0

 160 O    1     1.9515     3.6879 179 FE   0 0 0
 160 O    1     2.1188     4.0039  81 FE   0 0 0
 160 O    1     2.1190     4.0043 154 FE   0 0 0
 160 O    2     2.6583     5.0235  50 O    0 0 0 144 O    0 0 0
 160 O    1     2.7698     5.2342 167 O    0 0 0
 160 O    1     2.7699     5.2344 169 O    0 0 0

 161 FE   2     1.9514     3.6877 110 O    0 0 0 197 O    0 0 0
 161 FE   2     2.1188     4.0039  71 O    0 0 0 132 O    0 0 0
 161 FE   1     2.9217     5.5212 112 FE   0 0 0
 161 FE   2     2.9873     5.6451 100 FE   0 0 0  92 FE   0 0 0
 161 FE   1     3.3588     6.3473  89 FE   0 0 0
 161 FE   1     3.4016     6.4281  80 O    0 0 0

 162 FE   1     1.9515     3.6879 117 O    0 0 0
 162 FE   3     2.1190     4.0043  83 O    0 0 0  88 O    0 0 0 204 O    0 0 0
 162 FE   1     2.9217     5.5212  85 FE   0 0 0
 162 FE   2     2.9872     5.6450  55 FE   0 0 0 179 FE   0 0 0
 162 FE   1     3.3588     6.3473 147 FE   0 0 0
 162 FE   2     3.4014     6.4278 150 O    0 0 0 169 O    0 0 0

 163 FE   2     1.9515     3.6879 168 O    0 0 0 200 O    0 0 0
 163 FE   3     2.1188     4.0039  59 O    0 0 0 136 O    0 0 0 158 O    0 0 0
 163 FE   1     2.9217     5.5212  70 FE   0 0 0
 163 FE   2     2.9872     5.6450  64 FE   0 0 0 192 FE   0 0 0
 163 FE   1     3.3588     6.3473 194 FE   0 0 0
 163 FE   1     3.4017     6.4282 109 O    0 0 0

 164 O    1     1.9515     3.6877 194 FE   0 0 0
 164 O    1     1.9515     3.6879 198 FE   0 0 0
 164 O    1     2.1190     4.0043  89 FE   0 0 0
 164 O    1     2.6583     5.0235 123 O    0 0 0
 164 O    1     2.7699     5.2344 110 O    0 0 0
 164 O    1     2.8927     5.4664 101 O    0 0 0

 165 O    1     1.9515     3.6879  77 FE   0 0 0
 165 O    1     2.1188     4.0039 205 FE   0 0 0
 165 O    1     2.6583     5.0235 148 O    0 0 0
 165 O    1     2.7699     5.2344 103 O    0 0 0
 165 O    1     2.8926     5.4661 201 O    0 0 0
 165 O    1     2.8927     5.4664 125 O    0 0 0

 166 O    1     1.9515     3.6877 173 FE   0 0 0
 166 O    1     1.9515     3.6879 151 FE   0 0 0
 166 O    1     2.1190     4.0043 146 FE   0 0 0
 166 O    1     2.7699     5.2344 120 O    0 0 0
 166 O    1     2.8927     5.4664  49 O    0 0 0
 166 O    1     2.8928     5.4666  67 O    0 0 0

 167 O    1     1.9514     3.6877  81 FE   0 0 0
 167 O    1     2.7698     5.2342 160 O    0 0 0
 167 O    1     2.8926     5.4661 144 O    0 0 0
 167 O    1     2.8927     5.4664 132 O    0 0 0
 167 O    1     2.8928     5.4666 129 O    0 0 0
 167 O    2     3.0589     5.7806  48 O    0 0 0  51 O    0 0 0

 168 O    1     1.9515     3.6879 163 FE   0 0 0
 168 O    1     2.1190     4.0043  64 FE   0 0 0
 168 O    2     2.6583     5.0235 109 O    0 0 0 126 O    0 0 0
 168 O    1     2.7699     5.2344  59 O    0 0 0
 168 O    1     2.8927     5.4664 136 O    0 0 0
 168 O    1     2.8928     5.4666  73 O    0 0 0

 169 O    1     1.9514     3.6877 147 FE   0 0 0
 169 O    1     1.9515     3.6879 154 FE   0 0 0
 169 O    1     2.1188     4.0039 179 FE   0 0 0
 169 O    1     2.7699     5.2344 160 O    0 0 0
 169 O    1     2.8927     5.4664  88 O    0 0 0
 169 O    1     2.8928     5.4666  50 O    0 0 0

 170 FE   2     1.9515     3.6879 113 O    0 0 0 159 O    0 0 0
 170 FE   2     2.1188     4.0039  84 O    0 0 0 209 O    0 0 0
 170 FE   1     2.9217     5.5212 182 FE   0 0 0
 170 FE   2     2.9872     5.6450  77 FE   0 0 0 156 FE   0 0 0
 170 FE   1     3.3588     6.3473  60 FE   0 0 0
 170 FE   1     3.4017     6.4282  41 O    0 0 0

 171 FE   1     1.9515     3.6877  93 O    0 0 0
 171 FE   2     2.1190     4.0043  97 O    0 0 0 131 O    0 0 0
 171 FE   1     2.9217     5.5212 155 FE   0 0 0
 171 FE   1     2.9873     5.6451  40 FE   0 0 0
 171 FE   2     3.3588     6.3473 116 FE   0 0 0 214 FE   0 0 0
 171 FE   2     3.4014     6.4277  91 O    0 0 0 181 O    0 0 0

 172 FE   1     1.9515     3.6877 190 O    0 0 0
 172 FE   3     2.1190     4.0043  78 O    0 0 0  96 O    0 0 0 143 O    0 0 0
 172 FE   1     2.9217     5.5212  47 FE   0 0 0
 172 FE   2     2.9873     5.6451 114 FE   0 0 0 147 FE   0 0 0
 172 FE   1     3.4014     6.4277 210 O    0 0 0
 172 FE   3     3.7114     7.0135  37 FE   0 0 0 119 FE   0 0 0 154 FE   0 0 0

 173 FE   3     1.9515     3.6877 106 O    0 0 0 126 O    0 0 0 166 O    0 0 0
 173 FE   3     3.3588     6.3473  66 FE   0 0 0 139 FE   0 0 0 151 FE   0 0 0
 173 FE   2     3.4014     6.4277 109 O    0 0 0 175 O    0 0 0
 173 FE   3     3.5859     6.7763  27 O    0 0 0  49 O    0 0 0  67 O    0 0 0
 173 FE   3     3.7113     7.0133  64 FE   0 0 0  72 FE   0 0 0 146 FE   0 0 0
 173 FE   1     3.9509     7.4662  24 FE   0 0 0

 174 O    1     1.9515     3.6877  74 FE   0 0 0
 174 O    1     2.7698     5.2342 115 O    0 0 0
 174 O    1     2.8927     5.4664  68 O    0 0 0
 174 O    1     2.8927     5.4664 187 O    0 0 0
 174 O    1     3.0589     5.7806 127 O    0 0 0
 174 O    2     3.0592     5.7811  46 O    0 0 0  91 O    0 0 0

 175 O    1     1.9515     3.6879 151 FE   0 0 0
 175 O    1     2.1190     4.0043  72 FE   0 0 0
 175 O    2     2.6583     5.0235 106 O    0 0 0 157 O    0 0 0
 175 O    1     2.7699     5.2344  49 O    0 0 0
 175 O    1     2.8927     5.4664 133 O    0 0 0
 175 O    1     2.8928     5.4666  90 O    0 0 0

 176 FE   2     1.9515     3.6879 135 O    0 0 0 142 O    0 0 0
 176 FE   1     2.1188     4.0039  87 O    0 0 0
 176 FE   1     2.9217     5.5212 193 FE   0 0 0
 176 FE   2     2.9872     5.6450  63 FE   0 0 0 191 FE   0 0 0
 176 FE   1     3.3588     6.3473  70 FE   0 0 0
 176 FE   1     3.4017     6.4282  39 O    0 0 0

 177 O    1     2.1188     4.0039  94 FE   0 0 0
 177 O    1     2.1190     4.0043 108 FE   0 0 0
 177 O    2     2.6583     5.0235  48 O    0 0 0  95 O    0 0 0
 177 O    1     2.7699     5.2344 129 O    0 0 0
 177 O    1     2.8927     5.4664 144 O    0 0 0
 177 O    1     2.8927     5.4664 184 O    0 0 0

 178 FE   1     1.9515     3.6877 210 O    0 0 0
 178 FE   3     2.1190     4.0043  75 O    0 0 0 117 O    0 0 0 150 O    0 0 0
 178 FE   1     2.9217     5.5212  55 FE   0 0 0
 178 FE   2     2.9873     5.6451 121 FE   0 0 0 147 FE   0 0 0
 178 FE   1     3.4014     6.4277 183 O    0 0 0
 178 FE   3     3.7114     7.0135  37 FE   0 0 0 134 FE   0 0 0 162 FE   0 0 0

 179 FE   2     1.9515     3.6879  88 O    0 0 0 160 O    0 0 0
 179 FE   1     2.1188     4.0039 169 O    0 0 0
 179 FE   2     2.9872     5.6450 154 FE   0 0 0 162 FE   0 0 0
 179 FE   1     3.3588     6.3473  32 FE   0 0 0
 179 FE   2     3.4017     6.4282  50 O    0 0 0 204 O    0 0 0
 179 FE   2     3.5862     6.7770  51 O    0 0 0 140 O    0 0 0

 180 FE   1     1.9515     3.6879 157 O    0 0 0
 180 FE   3     2.1188     4.0039  90 O    0 0 0 102 O    0 0 0 207 O    0 0 0
 180 FE   1     2.9217     5.5212  82 FE   0 0 0
 180 FE   2     2.9872     5.6450  72 FE   0 0 0 211 FE   0 0 0
 180 FE   1     3.3588     6.3473 206 FE   0 0 0
 180 FE   1     3.4017     6.4282 175 O    0 0 0

 181 O    1     1.9515     3.6877 193 FE   0 0 0
 181 O    1     1.9515     3.6879 116 FE   0 0 0
 181 O    1     2.8926     5.4661 131 O    0 0 0
 181 O    1     2.8927     5.4664  87 O    0 0 0
 181 O    1     2.8927     5.4664 195 O    0 0 0
 181 O    2     3.0589     5.7806  54 O    0 0 0  93 O    0 0 0

 182 FE   2     1.9515     3.6877 127 O    0 0 0 201 O    0 0 0
 182 FE   2     2.1190     4.0043  84 O    0 0 0 209 O    0 0 0
 182 FE   1     2.9217     5.5212 170 FE   0 0 0
 182 FE   1     2.9873     5.6451  45 FE   0 0 0
 182 FE   1     3.3588     6.3473 130 FE   0 0 0
 182 FE   1     3.4014     6.4277  56 O    0 0 0

 183 O    1     1.9515     3.6877 149 FE   0 0 0
 183 O    1     2.1188     4.0039 121 FE   0 0 0
 183 O    1     2.7698     5.2342  86 O    0 0 0
 183 O    1     2.8926     5.4661  75 O    0 0 0
 183 O    1     2.8927     5.4664  62 O    0 0 0
 183 O    2     3.0589     5.7806 190 O    0 0 0 210 O    0 0 0

 184 O    1     1.9515     3.6879  94 FE   0 0 0
 184 O    1     2.1190     4.0043 191 FE   0 0 0
 184 O    1     2.6583     5.0235 135 O    0 0 0
 184 O    1     2.7699     5.2344  95 O    0 0 0
 184 O    1     2.8926     5.4661 158 O    0 0 0
 184 O    1     2.8927     5.4664 177 O    0 0 0

 185 FE   2     1.9514     3.6877 153 O    0 0 0 202 O    0 0 0
 185 FE   2     2.1188     4.0039  79 O    0 0 0 203 O    0 0 0
 185 FE   1     2.9217     5.5212 145 FE   0 0 0
 185 FE   1     2.9873     5.6451  52 FE   0 0 0
 185 FE   1     3.3588     6.3473 146 FE   0 0 0
 185 FE   1     3.4016     6.4281  67 O    0 0 0

 186 O    1     1.9515     3.6877 100 FE   0 0 0
 186 O    1     2.7698     5.2342 188 O    0 0 0
 186 O    1     2.8927     5.4664 197 O    0 0 0
 186 O    1     2.8927     5.4664 140 O    0 0 0
 186 O    1     2.8928     5.4666 122 O    0 0 0
 186 O    2     3.0592     5.7811  58 O    0 0 0  71 O    0 0 0

 187 O    1     1.9514     3.6877 212 FE   0 0 0
 187 O    1     1.9515     3.6879 104 FE   0 0 0
 187 O    1     2.7699     5.2344 127 O    0 0 0
 187 O    1     2.8927     5.4664 174 O    0 0 0
 187 O    1     2.8928     5.4666  46 O    0 0 0
 187 O    1     3.0589     5.7806 105 O    0 0 0

 188 O    1     1.9515     3.6879 211 FE   0 0 0
 188 O    1     2.1188     4.0039 208 FE   0 0 0
 188 O    1     2.1190     4.0043 100 FE   0 0 0
 188 O    2     2.6583     5.0235  80 O    0 0 0 197 O    0 0 0
 188 O    1     2.7698     5.2342 186 O    0 0 0
 188 O    1     2.8927     5.4664  58 O    0 0 0

 189 O    1     2.1188     4.0039 107 FE   0 0 0
 189 O    1     2.1190     4.0043 124 FE   0 0 0
 189 O    2     2.6583     5.0235  53 O    0 0 0 122 O    0 0 0
 189 O    1     2.7699     5.2344 128 O    0 0 0
 189 O    1     2.8927     5.4664 141 O    0 0 0
 189 O    1     3.0592     5.7811 148 O    0 0 0

 190 O    1     1.9515     3.6877 172 FE   0 0 0
 190 O    1     2.1188     4.0039 114 FE   0 0 0
 190 O    1     2.6583     5.0235 213 O    0 0 0
 190 O    1     2.7698     5.2342  96 O    0 0 0
 190 O    1     2.8926     5.4661  62 O    0 0 0
 190 O    1     2.8927     5.4664  78 O    0 0 0

 191 FE   1     1.9515     3.6879  95 O    0 0 0
 191 FE   2     2.1190     4.0043 135 O    0 0 0 184 O    0 0 0
 191 FE   2     2.9872     5.6450  94 FE   0 0 0 176 FE   0 0 0
 191 FE   1     3.3588     6.3473  57 FE   0 0 0
 191 FE   2     3.4014     6.4278  87 O    0 0 0 177 O    0 0 0
 191 FE   1     3.5859     6.7764 152 O    0 0 0

 192 FE   2     1.9515     3.6879 101 O    0 0 0 158 O    0 0 0
 192 FE   1     2.1190     4.0043 200 O    0 0 0
 192 FE   2     2.9872     5.6450 163 FE   0 0 0 198 FE   0 0 0
 192 FE   1     3.3588     6.3473  36 FE   0 0 0
 192 FE   1     3.4014     6.4278  59 O    0 0 0
 192 FE   3     3.5859     6.7764  43 O    0 0 0 129 O    0 0 0 184 O    0 0 0

 193 FE   2     1.9515     3.6877 152 O    0 0 0 181 O    0 0 0
 193 FE   1     2.1190     4.0043  87 O    0 0 0
 193 FE   1     2.9217     5.5212 176 FE   0 0 0
 193 FE   1     2.9873     5.6451  57 FE   0 0 0
 193 FE   1     3.3588     6.3473 116 FE   0 0 0
 193 FE   1     3.4014     6.4277  54 O    0 0 0

 194 FE   3     1.9515     3.6877 109 O    0 0 0 164 O    0 0 0 200 O    0 0 0
 194 FE   3     3.3588     6.3473  66 FE   0 0 0 163 FE   0 0 0 198 FE   0 0 0
 194 FE   2     3.4014     6.4277 123 O    0 0 0 168 O    0 0 0
 194 FE   3     3.5859     6.7763  38 O    0 0 0  59 O    0 0 0 101 O    0 0 0
 194 FE   3     3.7113     7.0133  64 FE   0 0 0  89 FE   0 0 0 192 FE   0 0 0
 194 FE   1     3.9509     7.4662  36 FE   0 0 0

 195 O    1     1.9515     3.6879 119 FE   0 0 0
 195 O    1     2.1188     4.0039 116 FE   0 0 0
 195 O    1     2.6583     5.0235 118 O    0 0 0
 195 O    1     2.7699     5.2344  54 O    0 0 0
 195 O    1     2.8927     5.4664 181 O    0 0 0
 195 O    1     2.8928     5.4666 152 O    0 0 0

 196 O    1     1.9515     3.6879 104 FE   0 0 0
 196 O    1     2.1188     4.0039 130 FE   0 0 0
 196 O    1     2.6583     5.0235 138 O    0 0 0
 196 O    1     2.7699     5.2344  56 O    0 0 0
 196 O    1     2.8927     5.4664 201 O    0 0 0
 196 O    1     2.8928     5.4666 127 O    0 0 0

 197 O    1     1.9514     3.6877 161 FE   0 0 0
 197 O    1     2.1188     4.0039 208 FE   0 0 0
 197 O    1     2.1190     4.0043 100 FE   0 0 0
 197 O    2     2.6583     5.0235  80 O    0 0 0 188 O    0 0 0
 197 O    1     2.7698     5.2342  71 O    0 0 0
 197 O    1     2.8927     5.4664 186 O    0 0 0

 198 FE   1     1.9515     3.6879 164 O    0 0 0
 198 FE   2     2.1188     4.0039 101 O    0 0 0 110 O    0 0 0
 198 FE   1     2.9217     5.5212  92 FE   0 0 0
 198 FE   2     2.9872     5.6450  89 FE   0 0 0 192 FE   0 0 0
 198 FE   1     3.3588     6.3473 194 FE   0 0 0
 198 FE   1     3.4017     6.4282 200 O    0 0 0

 199 FE   1     1.9514     3.6877 120 O    0 0 0
 199 FE   2     2.1188     4.0039 113 O    0 0 0 137 O    0 0 0
 199 FE   1     2.9217     5.5212 156 FE   0 0 0
 199 FE   1     2.9873     5.6451  60 FE   0 0 0
 199 FE   1     3.3588     6.3473 146 FE   0 0 0
 199 FE   2     3.4016     6.4281 133 O    0 0 0 202 O    0 0 0

 200 O    1     1.9515     3.6877 194 FE   0 0 0
 200 O    1     1.9515     3.6879 163 FE   0 0 0
 200 O    1     2.1190     4.0043 192 FE   0 0 0
 200 O    1     2.7699     5.2344 158 O    0 0 0
 200 O    1     2.8927     5.4664  59 O    0 0 0
 200 O    1     2.8928     5.4666 101 O    0 0 0

 201 O    1     1.9515     3.6877 182 FE   0 0 0
 201 O    1     1.9515     3.6879 130 FE   0 0 0
 201 O    1     2.8926     5.4661 165 O    0 0 0
 201 O    1     2.8927     5.4664  84 O    0 0 0
 201 O    1     2.8927     5.4664 196 O    0 0 0
 201 O    2     3.0589     5.7806  56 O    0 0 0 125 O    0 0 0

 202 O    1     1.9514     3.6877 185 FE   0 0 0
 202 O    1     1.9515     3.6879 146 FE   0 0 0
 202 O    1     2.8926     5.4661  79 O    0 0 0
 202 O    1     2.8927     5.4664 137 O    0 0 0
 202 O    1     3.0589     5.7806 153 O    0 0 0
 202 O    2     3.0592     5.7811  67 O    0 0 0 120 O    0 0 0

 203 O    1     1.9515     3.6879 155 FE   0 0 0
 203 O    1     2.1188     4.0039 185 FE   0 0 0
 203 O    1     2.1190     4.0043 145 FE   0 0 0
 203 O    1     2.6583     5.0235  79 O    0 0 0
 203 O    1     2.7699     5.2344  97 O    0 0 0
 203 O    1     2.8926     5.4661 153 O    0 0 0

 204 O    1     2.1188     4.0039  85 FE   0 0 0
 204 O    1     2.1190     4.0043 162 FE   0 0 0
 204 O    2     2.6583     5.0235  83 O    0 0 0  88 O    0 0 0
 204 O    1     2.7698     5.2342 140 O    0 0 0
 204 O    1     2.8926     5.4661 122 O    0 0 0
 204 O    1     3.4014     6.4277 124 FE   0 0 0

 205 FE   1     1.9515     3.6879 103 O    0 0 0
 205 FE   2     2.1188     4.0039 148 O    0 0 0 165 O    0 0 0
 205 FE   1     2.9872     5.6450  77 FE   0 0 0
 205 FE   1     3.3588     6.3473  82 FE   0 0 0
 205 FE   2     3.4017     6.4282 128 O    0 0 0 159 O    0 0 0
 205 FE   1     3.5862     6.7770 207 O    0 0 0

 206 FE   2     1.9515     3.6877 123 O    0 0 0 157 O    0 0 0
 206 FE   3     3.3588     6.3473  66 FE   0 0 0 180 FE   0 0 0 208 FE   0 0 0
 206 FE   1     3.4014     6.4277 106 O    0 0 0
 206 FE   3     3.5859     6.7763  33 O    0 0 0  80 O    0 0 0 102 O    0 0 0
 206 FE   3     3.7113     7.0133  72 FE   0 0 0  89 FE   0 0 0 211 FE   0 0 0
 206 FE   1     3.9509     7.4662  42 FE   0 0 0

 207 O    1     2.1188     4.0039 180 FE   0 0 0
 207 O    1     2.1190     4.0043  82 FE   0 0 0
 207 O    2     2.6583     5.0235  90 O    0 0 0 102 O    0 0 0
 207 O    1     2.7698     5.2342 128 O    0 0 0
 207 O    1     2.8927     5.4664 103 O    0 0 0
 207 O    1     3.4014     6.4278 211 FE   0 0 0

 208 FE   3     2.1188     4.0039  80 O    0 0 0 188 O    0 0 0 197 O    0 0 0
 208 FE   1     2.9217     5.5212 100 FE   0 0 0
 208 FE   2     2.9872     5.6450  89 FE   0 0 0 211 FE   0 0 0
 208 FE   1     3.3588     6.3473 206 FE   0 0 0
 208 FE   1     3.4017     6.4282 123 O    0 0 0
 208 FE   2     3.7113     7.0133  42 FE   0 0 0 161 FE   0 0 0

 209 O    1     1.9515     3.6879 156 FE   0 0 0
 209 O    1     2.1188     4.0039 170 FE   0 0 0
 209 O    1     2.1190     4.0043 182 FE   0 0 0
 209 O    1     2.6583     5.0235  84 O    0 0 0
 209 O    1     2.7699     5.2344 113 O    0 0 0
 209 O    1     2.8927     5.4664 127 O    0 0 0

 210 O    1     1.9515     3.6877 178 FE   0 0 0
 210 O    1     2.1188     4.0039 147 FE   0 0 0
 210 O    1     2.7698     5.2342 117 O    0 0 0
 210 O    1     2.8926     5.4661  78 O    0 0 0
 210 O    1     2.8927     5.4664  75 O    0 0 0
 210 O    2     3.0589     5.7806 183 O    0 0 0 190 O    0 0 0

 211 FE   2     1.9515     3.6879 102 O    0 0 0 188 O    0 0 0
 211 FE   2     2.9872     5.6450 180 FE   0 0 0 208 FE   0 0 0
 211 FE   1     3.3588     6.3473  42 FE   0 0 0
 211 FE   2     3.4014     6.4278  80 O    0 0 0 207 O    0 0 0
 211 FE   2     3.5859     6.7764  58 O    0 0 0 128 O    0 0 0
 211 FE   1     3.7113     7.0133 206 FE   0 0 0

 212 FE   2     1.9514     3.6877 105 O    0 0 0 187 O    0 0 0
 212 FE   1     2.9873     5.6451 149 FE   0 0 0
 212 FE   2     3.3588     6.3473  99 FE   0 0 0 104 FE   0 0 0
 212 FE   1     3.4016     6.4281  86 O    0 0 0
 212 FE   3     3.5862     6.7770  46 O    0 0 0  91 O    0 0 0 174 O    0 0 0
 212 FE   2     3.7113     7.0133  35 FE   0 0 0 214 FE   0 0 0

 213 O    1     1.9515     3.6877 149 FE   0 0 0
 213 O    1     2.1188     4.0039 114 FE   0 0 0
 213 O    1     2.6583     5.0235 190 O    0 0 0
 213 O    1     2.7698     5.2342  62 O    0 0 0
 213 O    1     2.8926     5.4661 118 O    0 0 0
 213 O    1     2.8927     5.4664 105 O    0 0 0

 214 FE   1     1.9515     3.6879  91 O    0 0 0
 214 FE   1     2.9872     5.6450  99 FE   0 0 0
 214 FE   2     3.3588     6.3473  74 FE   0 0 0 171 FE   0 0 0
 214 FE   2     3.4017     6.4282  93 O    0 0 0 174 O    0 0 0
 214 FE   2     3.5862     6.7770  97 O    0 0 0 115 O    0 0 0
 214 FE   1     3.7113     7.0133 212 FE   0 0 0

 215 O    1     1.9514     3.6877  98 FE   0 0 0
 215 O    1     2.7698     5.2342 142 O    0 0 0
 215 O    1     2.8926     5.4661  76 O    0 0 0
 215 O    2     3.0589     5.7806  73 O    0 0 0 136 O    0 0 0
 215 O    1     3.0592     5.7811 153 O    0 0 0
 215 O    1     3.5862     6.7770 155 FE   0 0 0


 SYMMETRY ALLOWED INTERNAL DEGREE(S) OF FREEDOM: 639
 TTTTTTTTTTTTTTTTTTTTTTTTTTTTTT SYMM        TELAPSE        0.73 TCPU        0.70
 TTTTTTTTTTTTTTTTTTTTTTTTTTTTTT INT_SCREEN  TELAPSE        1.98 TCPU        1.91
 WARNING **** GENBUF **** COULOMB BIPO BUFFER TOO SMALL - TO AVOID I/O SET BIPOSIZE =    14018125
 INFORMATION **** EXCBUF **** EXCH. BIPO BUFFER: WORDS USED =      360000
 WARNING **** EXCBUF **** EXCH. BIPO BUFFER TOO SMALL - TO AVOID I/O SET EXCHSIZE =    10019349
