/crystal2k/Pcrystal_intel.181007
/home/ugliengo/data/tmp_p11945
NaOH
MOLECULE
 1 
 3
 11     1.061806787738   2.595372217749   0.137200375465   
 8     1.481128640647   0.791426366566   -0.287003054120   
 1     1.679754781498   -0.063074299784   -0.487941520765   
OPTGEOM
END
ENDG
8 4
0 0 6 2. 1.
     5484.6717        0.0018
      825.2349        0.0140
      188.0470        0.0684
       52.9645        0.2327
       16.8976        0.4702
        5.7996        0.3585
0 1 3 7. 1.
       15.5396       -0.1108     0.0709
        3.5999       -0.1480     0.3398
        1.0138        1.1308     0.7272
0 1 1 0. 1.
        0.2742          1.            1.
0 3 1 0. 1.
        0.538           1.
1 3
0 0    3 1. 1.00
 0.1873113696D+02  0.3349460434D-01
 0.2825394365D+01  0.2347269535D+00
 0.6401216923D+00  0.8137573262D+00
0 0     1 0. 1.00
 0.1612777588D+00  0.1000000000D+01
0 2 1 0. 1.
 1.1  1.
11  4
0  0  8  2.  1.
 56700.      0.000225
  8060.      0.00191
  1704.      0.0105
   443.6     0.05006
   133.1     0.1691
    45.8     0.3658
    17.75    0.3998
     7.38    0.1494
0  1  5  8.  1.
   119.0    -0.00673    0.00803
    25.33   -0.0798     0.0639
     7.80   -0.0793     0.2074
     3.00    0.3056     0.3398
     1.289   0.5639     0.3726
0  1  1  0.  1.
     0.548   1.         1.
0  1  1  0.  1.
     0.273   1.         1.
99 0
ENDBS
DFT
XLGRID 
EXCHANGE
PBE
CORRELAT
PBE
ENDDFT
SCFDIR
TOLINTEG
6 6 6 6 14
LEVSHIFT
3 1
FMIXING
20
MAXCYCLE
1000
END

Mon Mar 31 15:53:47 CEST 2008
 PROCESS             0  OF             1  WORKING

         
 *******************************************************************************
 *                                                                             *
 *                                CRYSTAL06                                    *
 *                          Release 1.0 - v1_0_2
                            Sequential executable                              *
 *                                                                             *
 *                          Built  17 Oct 2007 18:00                           *
 *                          Xmake: Linux-pgf_p7_mpich_1.2.7.fedora5_2.6        *
 *                          Compiled on: olidata1.ch.unito.it                  *
 *                                                                             *
 *                              MAIN AUTHORS                                   *
 *                                                                             *
 *    R. DOVESI(1,10), V.R. SAUNDERS(2), C. ROETTI(1,10), R. ORLANDO (1,3),    *
 *  C.M. ZICOVICH-WILSON(1,4), F. PASCALE(5), B. CIVALLERI(1,10), K. DOLL(6),  *
 *       N.M. HARRISON(2,7), I. J. BUSH(2), Ph. D'ARCO(8), M. LLUNELL(9)       *
 *                                                                             *
 * (1) THEORETICAL CHEMISTRY GROUP - UNIVERSITA' DI TORINO - TORINO (ITALY)    *
 *      http://www.crystal.unito.it                                            *
 * (2) COMPUTATIONAL SCIENCE & ENGINEERING DEPARTMENT - CCLRC DARESBURY (UK)   *
 *     http://www.cse.clrc.ac.uk/cmg/CRYSTAL/                                  *
 * (3) UNIVERSITA' DEL PIEMONTE ORIENTALE - ALESSANDRIA (ITALY)                *
 * (4) UNIVERSIDAD AUTONOMA DEL ESTADO DE MORELOS - CUERNAVACA (MEXICO)        *
 * (5) UNIVERSITE' HENRI POINCARE' - NANCY (FRANCE)                            *
 * (6) MPI FUER FESTKOERPERFORSCHUNG - STUTTGART (GERMANY)                     *
 * (7) IMPERIAL COLLEGE - LONDON (UK)                                          *
 * (8) UNIVERSITE' PIERRE ET MARIE CURIE - PARIS (FRANCE)                      *
 * (9) UNIVERSIDAD DE BARCELONA - BARCELONA (SPAIN)                            *
 *(10) NIS - NANOSTRUCTURED INTERFACES AND SURFACES - TORINO (ITALY)           *
 *     http://www.crystal.unito.it                                             *
 *******************************************************************************
 EEEEEEEEEE STARTING  DATE 31 03 2008 TIME 15:53:48.2
 NaOH                                                                            

 MOLECULAR CALCULATION
 POINT  GROUP  N.  1                  :  1      OR  C1   
 CORRESPONDING SPACE GROUP            :  P 1             


 NUMBER OF IRREDUCIBLE ATOMS IN THE CONVENTIONAL CELL:    3

 INPUT COORDINATES

 ATOM AT. N.              COORDINATES
   1  11     1.061806787738E+00  2.595372217749E+00  1.372003754650E-01
   2   8     1.481128640647E+00  7.914263665660E-01 -2.870030541200E-01
   3   1     1.679754781498E+00 -6.307429978400E-02 -4.879415207650E-01

 COORDINATES OF THE EQUIVALENT ATOMS (ANGSTROMS)

 N. ATOM EQUIV AT. N.          X                  Y                  Z

   1   1   1   11 NA    1.06180678774E+00  2.59537221775E+00  1.37200375465E-01

   2   2   1    8 O     1.48112864065E+00  7.91426366566E-01 -2.87003054120E-01

   3   3   1    1 H     1.67975478150E+00 -6.30742997840E-02 -4.87941520765E-01

 NUMBER OF SYMMETRY OPERATORS         :    1
 *******************************************************************************
 * GEOMETRY EDITING - INPUT COORDINATES ARE GIVEN IN ANGSTROM          
 *******************************************************************************
 *******************************************************************************
 ATOMIC POSITIONS OPTIMIZATION CONTROL

 MAXIMUM GRADIENT COMPONENT   0.00045 MAXIMUM DISPLACEMENT COMPONENT     0.00030
 R.M.S. OF GRADIENT COMPONENT 0.00180 R.M.S. OF DISPLACEMENT COMPONENTS  0.00120
 THRESHOLD ON ENERGY CHANGE 0.100E-06 EXTRAPOLATING POLYNOMIAL ORDER           2
 MAXIMUM ALLOWED NUMBER OF STEPS  100 SORTING OF ENERGY POINTS:               NO
 ANALYTICAL  GRADIENT                 HESSIAN UPDATING                      BFGS
 STEP SIZE NUMERICAL GRADIENT 0.00100
 INITIAL HESSIAN MATRIX: SCHLEGEL MODEL 2
 *******************************************************************************


 GEOMETRY FOR WAVE FUNCTION - DIMENSIONALITY OF THE SYSTEM    0
 (NON PERIODIC DIRECTION: LATTICE PARAMETER FORMALLY SET TO 500)
 *******************************************************************************
 ATOMS IN THE ASYMMETRIC UNIT    3 - ATOMS IN THE UNIT CELL:    3
     ATOM          X(ANGSTROM)         Y(ANGSTROM)         Z(ANGSTROM)
 *******************************************************************************
   1 T  11 NA    1.061806787738E+00  2.595372217749E+00  1.372003754650E-01
   2 T   8 O     1.481128640647E+00  7.914263665660E-01 -2.870030541200E-01
   3 T   1 H     1.679754781498E+00 -6.307429978400E-02 -4.879415207650E-01

 T = ATOM BELONGING TO THE ASYMMETRIC UNIT

 ****   1 SYMMOPS - TRANSLATORS IN FRACTIONARY UNITS
  V INV                   ROTATION MATRICES                       TRANSLATOR
  1  1  1.00  0.00  0.00  0.00  1.00  0.00  0.00  0.00  1.00    0.00  0.00  0.00

 *******************************************************************************
 LOCAL ATOMIC FUNCTIONS BASIS SET
 *******************************************************************************
   ATOM  X(AU)  Y(AU)  Z(AU)    NO. TYPE  EXPONENT  S COEF   P COEF   D/F/G COEF
 *******************************************************************************
   1 NA  2.007  4.905  0.259
                                  1 S  
                                         5.670E+04 2.250E-04 0.000E+00 0.000E+00
                                         8.060E+03 1.910E-03 0.000E+00 0.000E+00
                                         1.704E+03 1.050E-02 0.000E+00 0.000E+00
                                         4.436E+02 5.006E-02 0.000E+00 0.000E+00
                                         1.331E+02 1.691E-01 0.000E+00 0.000E+00
                                         4.580E+01 3.658E-01 0.000E+00 0.000E+00
                                         1.775E+01 3.998E-01 0.000E+00 0.000E+00
                                         7.380E+00 1.494E-01 0.000E+00 0.000E+00
                             2-   5 SP 
                                         1.190E+02-6.730E-03 8.030E-03 0.000E+00
                                         2.533E+01-7.980E-02 6.390E-02 0.000E+00
                                         7.800E+00-7.930E-02 2.074E-01 0.000E+00
                                         3.000E+00 3.056E-01 3.398E-01 0.000E+00
                                         1.289E+00 5.639E-01 3.726E-01 0.000E+00
                             6-   9 SP 
                                         5.480E-01 1.000E+00 1.000E+00 0.000E+00
                            10-  13 SP 
                                         2.730E-01 1.000E+00 1.000E+00 0.000E+00
   2 O   2.799  1.496 -0.542
                                 14 S  
                                         5.485E+03 1.800E-03 0.000E+00 0.000E+00
                                         8.252E+02 1.400E-02 0.000E+00 0.000E+00
                                         1.880E+02 6.840E-02 0.000E+00 0.000E+00
                                         5.296E+01 2.327E-01 0.000E+00 0.000E+00
                                         1.690E+01 4.702E-01 0.000E+00 0.000E+00
                                         5.800E+00 3.585E-01 0.000E+00 0.000E+00
                            15-  18 SP 
                                         1.554E+01-1.108E-01 7.090E-02 0.000E+00
                                         3.600E+00-1.480E-01 3.398E-01 0.000E+00
                                         1.014E+00 1.131E+00 7.272E-01 0.000E+00
                            19-  22 SP 
                                         2.742E-01 1.000E+00 1.000E+00 0.000E+00
                            23-  27 D  
                                         5.380E-01 0.000E+00 0.000E+00 1.000E+00
   3 H   3.174 -0.119 -0.922
                                 28 S  
                                         1.873E+01 3.349E-02 0.000E+00 0.000E+00
                                         2.825E+00 2.347E-01 0.000E+00 0.000E+00
                                         6.401E-01 8.138E-01 0.000E+00 0.000E+00
                                 29 S  
                                         1.613E-01 1.000E+00 0.000E+00 0.000E+00
                            30-  32 P  
                                         1.100E+00 0.000E+00 1.000E+00 0.000E+00
 INFORMATION **** READM2 **** FULL DIRECT SCF (MONO AND BIEL INT) SELECTED
 INFORMATION **** TOLINTEG **** COULOMB AND EXCHANGE SERIES TOLERANCES MODIFIED
 INFORMATION **** MAXCYCLE **** MAX NUMBER OF SCF CYCLES SET TO      1000
 *******************************************************************************
 N. OF ATOMS PER CELL        3  COULOMB OVERLAP TOL         (T1) 10** -6
 NUMBER OF SHELLS           11  COULOMB PENETRATION TOL     (T2) 10** -6
 NUMBER OF AO               32  EXCHANGE OVERLAP TOL        (T3) 10** 20
 N. OF ELECTRONS PER CELL   20  EXCHANGE PSEUDO OVP (F(G))  (T4) 10** 20
 CORE ELECTRONS PER CELL    12  EXCHANGE PSEUDO OVP (P(G))  (T5) 10** 20
 N. OF SYMMETRY OPERATORS    1  POLE ORDER IN MONO ZONE                4
 *******************************************************************************
 TYPE OF CALCULATION :  RESTRICTED CLOSED SHELL
 KOHN-SHAM HAMILTONIAN

 (EXCHANGE)[CORRELATION] FUNCTIONAL:(PERDEW-BURKE-ERNZERHOF)[PERDEW-BURKE-ERNZERHOF]

 EIGENVALUE LEVEL SHIFTING OF  0.300 HARTREE
 LOCKING - FERMI ENERGY ALTERED BY LEVEL SHIFTER

 CAPPA: IS1=  1 IS2=  1 IS3=  1K POINTS MONKHORST NET    1 SYMMOPS K SPACE  2 SYMMOPS G SPACE  1


 CAPPA1: ISJ1=  1 ISJ2=  1 ISJ3=  1K POINTS GILAT NET    1 SYMMOPS K SPACE  2 SYMMOPS G SPACE  1

 *******************************************************************************
 MAX NUMBER OF SCF CYCLES    1000  CONVERGENCE ON DELTAP        10**-16
 WEIGHT OF F(I) IN F(I+1)      20% CONVERGENCE ON ENERGY        10**- 7
 EIGENVALUE LEVEL SHIFTING OF  0.300 HARTREE
 LOCKING - FERMI ENERGY ALTERED BY LEVEL SHIFTER

 DISK SPACE FOR EIGENVECTORS (FTN 10)       1024 REALS

 SYMMETRY ADAPTION OF THE BLOCH FUNCTIONS DISABLED

 DIMENSIONS  P(G)=     982 F(G)=     507 P(G),F(G) (IRR)     550
 MAX G-VECTOR INDEX FOR 1- AND 2-ELECTRON INTEGRALS   1

 TTTTTTTTTTTTTTTTTTTTTTTTTTTTTT INPUT       TELAPSE        0.01 TCPU        0.00

 NEIGHBORS OF THE NON-EQUIVALENT ATOMS

 N = NUMBER OF NEIGHBORS AT DISTANCE R
    ATOM  N     R/ANG      R/AU   NEIGHBORS (ATOM LABELS AND CELL INDICES)
   1 NA   1     1.9000     3.5905   2 O    0 0 0
   1 NA   1     2.8000     5.2912   3 H    0 0 0

   2 O    1     0.9000     1.7008   3 H    0 0 0
   2 O    1     1.9000     3.5905   1 NA   0 0 0

   3 H    1     0.9000     1.7008   2 O    0 0 0
   3 H    1     2.8000     5.2912   1 NA   0 0 0


 SYMMETRY ALLOWED INTERNAL DEGREE(S) OF FREEDOM:   4
 TTTTTTTTTTTTTTTTTTTTTTTTTTTTTT SYMM        TELAPSE        0.01 TCPU        0.00
 TTTTTTTTTTTTTTTTTTTTTTTTTTTTTT INT_SCREEN  TELAPSE        0.01 TCPU        0.00
 *******************************************************************************
 COORDINATE OPTIMIZATION - POINT    1
 INFORMATION **** EXCBUF **** EXCH. BIPO BUFFER: WORDS USED =         0

 DFT PARAMETERS

     ATOM       ELECTRONS   NET CHARGE   R(ANGSTROM)
   1  11  NA     10.0000      1.0000     1.02000000
   2   8  O       9.0000     -1.0000     1.07000000
   3   1  H       1.0000      0.0000     1.11000000

 SIZE OF GRID=     106156
 TTTTTTTTTTTTTTTTTTTTTTTTTTTTTT MAKEGRID    TELAPSE        0.19 TCPU        0.19
 BECKE WEIGHT FUNCTION
 RADSAFE =     2.00
 TOLERANCES - DENSITY:10**- 6; POTENTIAL:10**- 9; GRID WGT:10**-14

 RADIAL INTEGRATION  - INTERVALS (POINTS,UPPER LIMIT):            1( 75,  4.0*R)

 ANGULAR INTEGRATION - INTERVALS (ACCURACY LEVEL [N. POINTS] UPPER LIMIT):
  1(  4[  86]   0.2)  2(  8[ 194]   0.5)  3( 12[ 350]   0.9)  4( 16[ 974]   3.5)
  5( 12[ 350]9999.0)
 TTTTTTTTTTTTTTTTTTTTTTTTTTTTTT INT_CALC    TELAPSE        0.19 TCPU        0.19

 *******************************************************************************
 NaOH                                                                            
 CRYSTAL - SCF - TYPE OF CALCULATION :  RESTRICTED CLOSED SHELL
 *******************************************************************************

 CAPPA: IS1=  1 IS2=  1 IS3=  1K POINTS MONKHORST NET    1 SYMMOPS K SPACE  2 SYMMOPS G SPACE  1


 CAPPA1: ISJ1=  1 ISJ2=  1 ISJ3=  1K POINTS GILAT NET    1 SYMMOPS K SPACE  2 SYMMOPS G SPACE  1

 TTTTTTTTTTTTTTTTTTTTTTTTTTTTTT SDIK        TELAPSE        0.19 TCPU        0.19

 AAAAAAAAAAAAAAAAAAAAAAAAAAAAAAAAAAAAAAAAAAAAAAAAAAAAAAAAAAAAAAAAAAAAAAAAAAAAAAA
         ATOMIC WAVEFUNCTION(S)


 NUCLEAR CHARGE 11.0  SYMMETRY SPECIES            S    P
 N. ELECTRONS   10.0  NUMBER OF PRIMITIVE GTOS   15    7
                      NUMBER OF CONTRACTED GTOS   4    3
                      NUMBER OF CLOSED SHELLS     2    1
                      OPEN SHELL OCCUPATION       0    0

  ZNUC SCFIT  TOTAL HF ENERGY   KINETIC ENERGY   VIRIAL THEOREM ACCURACY
  11.0  11   -1.616686309E+02  1.614474876E+02 -2.001369754E+00  2.3E-06

 NUCLEAR CHARGE  8.0  SYMMETRY SPECIES            S    P
 N. ELECTRONS    9.0  NUMBER OF PRIMITIVE GTOS   10    4
                      NUMBER OF CONTRACTED GTOS   3    2
                      NUMBER OF CLOSED SHELLS     2    0
                      OPEN SHELL OCCUPATION       0    5

  ZNUC SCFIT  TOTAL HF ENERGY   KINETIC ENERGY   VIRIAL THEOREM ACCURACY
   8.0  14   -7.471036766E+01  7.483805763E+01 -1.998293783E+00  3.0E-06

 NUCLEAR CHARGE  1.0  SYMMETRY SPECIES            S
 N. ELECTRONS    1.0  NUMBER OF PRIMITIVE GTOS    4
                      NUMBER OF CONTRACTED GTOS   2
                      NUMBER OF CLOSED SHELLS     0
                      OPEN SHELL OCCUPATION       1

  ZNUC SCFIT  TOTAL HF ENERGY   KINETIC ENERGY   VIRIAL THEOREM ACCURACY
   1.0   1   -4.982329092E-01  5.098666671E-01 -1.977182745E+00  0.0E+00

 AAAAAAAAAAAAAAAAAAAAAAAAAAAAAAAAAAAAAAAAAAAAAAAAAAAAAAAAAAAAAAAAAAAAAAAAAAAAAAA

 CHARGE NORMALIZATION FACTOR   1.00000000
 TOTAL ATOMIC CHARGES:
  10.0000000   9.0000000   1.0000000
 TTTTTTTTTTTTTTTTTTTTTTTTTTTTTT MOQGAD      TELAPSE        0.20 TCPU        0.19
 TTTTTTTTTTTTTTTTTTTTTTTTTTTTTT SHELLX      TELAPSE        0.24 TCPU        0.23
 TTTTTTTTTTTTTTTTTTTTTTTTTTTTTT MONMO3      TELAPSE        0.24 TCPU        0.23
 NUMERICALLY INTEGRATED DENSITY     19.9999998764
 TTTTTTTTTTTTTTTTTTTTTTTTTTTTTT NUMDFT      TELAPSE        1.06 TCPU        1.05
 CYC   0 ETOT(AU) -2.380333833784E+02 DETOT -2.38E+02 tst  0.00E+00 PX  1.00E+00
 TTTTTTTTTTTTTTTTTTTTTTTTTTTTTT FDIK        TELAPSE        1.06 TCPU        1.06
 INSULATING STATE - TOP OF VALENCE BANDS (A.U.) -9.4584373E-02
 TTTTTTTTTTTTTTTTTTTTTTTTTTTTTT PDIG        TELAPSE        1.06 TCPU        1.06
 CHARGE NORMALIZATION FACTOR   1.00000000
 TOTAL ATOMIC CHARGES:
  10.1164549   9.1768871   0.7066580
 TTTTTTTTTTTTTTTTTTTTTTTTTTTTTT MOQGAD      TELAPSE        1.07 TCPU        1.06
 TTTTTTTTTTTTTTTTTTTTTTTTTTTTTT SHELLX      TELAPSE        1.11 TCPU        1.10
 TTTTTTTTTTTTTTTTTTTTTTTTTTTTTT MONMO3      TELAPSE        1.11 TCPU        1.10
 NUMERICALLY INTEGRATED DENSITY     19.9999998946
 TTTTTTTTTTTTTTTTTTTTTTTTTTTTTT NUMDFT      TELAPSE        2.25 TCPU        2.23
 CYC   1 ETOT(AU) -2.378355187506E+02 DETOT  1.98E-01 tst  0.00E+00 PX  1.00E+00
 TTTTTTTTTTTTTTTTTTTTTTTTTTTTTT FDIK        TELAPSE        2.25 TCPU        2.23
 INSULATING STATE - TOP OF VALENCE BANDS (A.U.) -2.7811751E-01
 TTTTTTTTTTTTTTTTTTTTTTTTTTTTTT PDIG        TELAPSE        2.25 TCPU        2.23
 CHARGE NORMALIZATION FACTOR   1.00000000
 TOTAL ATOMIC CHARGES:
  10.1580139   9.0026950   0.8392911
 TTTTTTTTTTTTTTTTTTTTTTTTTTTTTT MOQGAD      TELAPSE        2.25 TCPU        2.24
 TTTTTTTTTTTTTTTTTTTTTTTTTTTTTT SHELLX      TELAPSE        2.29 TCPU        2.28
 TTTTTTTTTTTTTTTTTTTTTTTTTTTTTT MONMO3      TELAPSE        2.29 TCPU        2.28
 NUMERICALLY INTEGRATED DENSITY     19.9999998882
 TTTTTTTTTTTTTTTTTTTTTTTTTTTTTT NUMDFT      TELAPSE        3.43 TCPU        3.42
 CYC   2 ETOT(AU) -2.378539198883E+02 DETOT -1.84E-02 tst  4.16E-03 PX  1.24E-01
 TTTTTTTTTTTTTTTTTTTTTTTTTTTTTT FDIK        TELAPSE        3.43 TCPU        3.42
 INSULATING STATE - TOP OF VALENCE BANDS (A.U.) -3.6692820E-01
 TTTTTTTTTTTTTTTTTTTTTTTTTTTTTT PDIG        TELAPSE        3.43 TCPU        3.42
 CHARGE NORMALIZATION FACTOR   1.00000000
 TOTAL ATOMIC CHARGES:
  10.1366739   9.0706323   0.7926937
 TTTTTTTTTTTTTTTTTTTTTTTTTTTTTT MOQGAD      TELAPSE        3.44 TCPU        3.42
 TTTTTTTTTTTTTTTTTTTTTTTTTTTTTT SHELLX      TELAPSE        3.48 TCPU        3.47
 TTTTTTTTTTTTTTTTTTTTTTTTTTTTTT MONMO3      TELAPSE        3.48 TCPU        3.47
 NUMERICALLY INTEGRATED DENSITY     19.9999998909
 TTTTTTTTTTTTTTTTTTTTTTTTTTTTTT NUMDFT      TELAPSE        4.62 TCPU        4.61
 CYC   3 ETOT(AU) -2.378605895991E+02 DETOT -6.67E-03 tst  1.61E-03 PX  7.47E-02
 TTTTTTTTTTTTTTTTTTTTTTTTTTTTTT FDIK        TELAPSE        4.62 TCPU        4.61
 INSULATING STATE - TOP OF VALENCE BANDS (A.U.) -3.1899336E-01
 TTTTTTTTTTTTTTTTTTTTTTTTTTTTTT PDIG        TELAPSE        4.62 TCPU        4.61
 CHARGE NORMALIZATION FACTOR   1.00000000
 TOTAL ATOMIC CHARGES:
  10.1461997   9.0311414   0.8226590
 TTTTTTTTTTTTTTTTTTTTTTTTTTTTTT MOQGAD      TELAPSE        4.63 TCPU        4.61
 TTTTTTTTTTTTTTTTTTTTTTTTTTTTTT SHELLX      TELAPSE        4.67 TCPU        4.65
 TTTTTTTTTTTTTTTTTTTTTTTTTTTTTT MONMO3      TELAPSE        4.67 TCPU        4.65
 NUMERICALLY INTEGRATED DENSITY     19.9999998893
 TTTTTTTTTTTTTTTTTTTTTTTTTTTTTT NUMDFT      TELAPSE        5.81 TCPU        5.79
 CYC   4 ETOT(AU) -2.378622991834E+02 DETOT -1.71E-03 tst  3.81E-04 PX  3.70E-02
 TTTTTTTTTTTTTTTTTTTTTTTTTTTTTT FDIK        TELAPSE        5.81 TCPU        5.79
 INSULATING STATE - TOP OF VALENCE BANDS (A.U.) -3.4276538E-01
 TTTTTTTTTTTTTTTTTTTTTTTTTTTTTT PDIG        TELAPSE        5.81 TCPU        5.79
 CHARGE NORMALIZATION FACTOR   1.00000000
 TOTAL ATOMIC CHARGES:
  10.1412354   9.0491176   0.8096470
 TTTTTTTTTTTTTTTTTTTTTTTTTTTTTT MOQGAD      TELAPSE        5.82 TCPU        5.80
 TTTTTTTTTTTTTTTTTTTTTTTTTTTTTT SHELLX      TELAPSE        5.86 TCPU        5.84
 TTTTTTTTTTTTTTTTTTTTTTTTTTTTTT MONMO3      TELAPSE        5.86 TCPU        5.84
 NUMERICALLY INTEGRATED DENSITY     19.9999998900
 TTTTTTTTTTTTTTTTTTTTTTTTTTTTTT NUMDFT      TELAPSE        7.00 TCPU        6.98
 CYC   5 ETOT(AU) -2.378627227771E+02 DETOT -4.24E-04 tst  9.63E-05 PX  1.83E-02
 TTTTTTTTTTTTTTTTTTTTTTTTTTTTTT FDIK        TELAPSE        7.00 TCPU        6.98
 INSULATING STATE - TOP OF VALENCE BANDS (A.U.) -3.3121388E-01
 TTTTTTTTTTTTTTTTTTTTTTTTTTTTTT PDIG        TELAPSE        7.00 TCPU        6.98
 CHARGE NORMALIZATION FACTOR   1.00000000
 TOTAL ATOMIC CHARGES:
  10.1436348   9.0396268   0.8167384
 TTTTTTTTTTTTTTTTTTTTTTTTTTTTTT MOQGAD      TELAPSE        7.01 TCPU        6.98
 TTTTTTTTTTTTTTTTTTTTTTTTTTTTTT SHELLX      TELAPSE        7.05 TCPU        7.03
 TTTTTTTTTTTTTTTTTTTTTTTTTTTTTT MONMO3      TELAPSE        7.05 TCPU        7.03
 NUMERICALLY INTEGRATED DENSITY     19.9999998896
 TTTTTTTTTTTTTTTTTTTTTTTTTTTTTT NUMDFT      TELAPSE        8.19 TCPU        8.16
 CYC   6 ETOT(AU) -2.378628240402E+02 DETOT -1.01E-04 tst  2.27E-05 PX  8.96E-03
 TTTTTTTTTTTTTTTTTTTTTTTTTTTTTT FDIK        TELAPSE        8.19 TCPU        8.16
 INSULATING STATE - TOP OF VALENCE BANDS (A.U.) -3.3695528E-01
 TTTTTTTTTTTTTTTTTTTTTTTTTTTTTT PDIG        TELAPSE        8.19 TCPU        8.16
 CHARGE NORMALIZATION FACTOR   1.00000000
 TOTAL ATOMIC CHARGES:
  10.1424437   9.0440693   0.8134870
 TTTTTTTTTTTTTTTTTTTTTTTTTTTTTT MOQGAD      TELAPSE        8.20 TCPU        8.17
 TTTTTTTTTTTTTTTTTTTTTTTTTTTTTT SHELLX      TELAPSE        8.24 TCPU        8.21
 TTTTTTTTTTTTTTTTTTTTTTTTTTTTTT MONMO3      TELAPSE        8.24 TCPU        8.22
 NUMERICALLY INTEGRATED DENSITY     19.9999998898
 TTTTTTTTTTTTTTTTTTTTTTTTTTTTTT NUMDFT      TELAPSE        9.38 TCPU        9.35
 CYC   7 ETOT(AU) -2.378628486432E+02 DETOT -2.46E-05 tst  5.57E-06 PX  4.42E-03
 TTTTTTTTTTTTTTTTTTTTTTTTTTTTTT FDIK        TELAPSE        9.38 TCPU        9.35
 INSULATING STATE - TOP OF VALENCE BANDS (A.U.) -3.3415690E-01
 TTTTTTTTTTTTTTTTTTTTTTTTTTTTTT PDIG        TELAPSE        9.38 TCPU        9.35
 CHARGE NORMALIZATION FACTOR   1.00000000
 TOTAL ATOMIC CHARGES:
  10.1430229   9.0418263   0.8151508
 TTTTTTTTTTTTTTTTTTTTTTTTTTTTTT MOQGAD      TELAPSE        9.38 TCPU        9.36
 TTTTTTTTTTTTTTTTTTTTTTTTTTTTTT SHELLX      TELAPSE        9.43 TCPU        9.40
 TTTTTTTTTTTTTTTTTTTTTTTTTTTTTT MONMO3      TELAPSE        9.43 TCPU        9.40
 NUMERICALLY INTEGRATED DENSITY     19.9999998897
 TTTTTTTTTTTTTTTTTTTTTTTTTTTTTT NUMDFT      TELAPSE       10.56 TCPU       10.54
 CYC   8 ETOT(AU) -2.378628545501E+02 DETOT -5.91E-06 tst  1.33E-06 PX  2.17E-03
 TTTTTTTTTTTTTTTTTTTTTTTTTTTTTT FDIK        TELAPSE       10.56 TCPU       10.54
 INSULATING STATE - TOP OF VALENCE BANDS (A.U.) -3.3553826E-01
 TTTTTTTTTTTTTTTTTTTTTTTTTTTTTT PDIG        TELAPSE       10.56 TCPU       10.54
 CHARGE NORMALIZATION FACTOR   1.00000000
 TOTAL ATOMIC CHARGES:
  10.1427356   9.0429082   0.8143562
 TTTTTTTTTTTTTTTTTTTTTTTTTTTTTT MOQGAD      TELAPSE       10.57 TCPU       10.54
 TTTTTTTTTTTTTTTTTTTTTTTTTTTTTT SHELLX      TELAPSE       10.61 TCPU       10.58
 TTTTTTTTTTTTTTTTTTTTTTTTTTTTTT MONMO3      TELAPSE       10.61 TCPU       10.58
 NUMERICALLY INTEGRATED DENSITY     19.9999998897
 TTTTTTTTTTTTTTTTTTTTTTTTTTTTTT NUMDFT      TELAPSE       11.75 TCPU       11.72
 CYC   9 ETOT(AU) -2.378628559733E+02 DETOT -1.42E-06 tst  3.23E-07 PX  1.06E-03
 TTTTTTTTTTTTTTTTTTTTTTTTTTTTTT FDIK        TELAPSE       11.75 TCPU       11.72
 INSULATING STATE - TOP OF VALENCE BANDS (A.U.) -3.3486225E-01
 TTTTTTTTTTTTTTTTTTTTTTTTTTTTTT PDIG        TELAPSE       11.75 TCPU       11.72
 CHARGE NORMALIZATION FACTOR   1.00000000
 TOTAL ATOMIC CHARGES:
  10.1428753   9.0423697   0.8147550
 TTTTTTTTTTTTTTTTTTTTTTTTTTTTTT MOQGAD      TELAPSE       11.76 TCPU       11.73
 TTTTTTTTTTTTTTTTTTTTTTTTTTTTTT SHELLX      TELAPSE       11.80 TCPU       11.77
 TTTTTTTTTTTTTTTTTTTTTTTTTTTTTT MONMO3      TELAPSE       11.80 TCPU       11.77
 NUMERICALLY INTEGRATED DENSITY     19.9999998897
 TTTTTTTTTTTTTTTTTTTTTTTTTTTTTT NUMDFT      TELAPSE       12.94 TCPU       12.92
 CYC  10 ETOT(AU) -2.378628563194E+02 DETOT -3.46E-07 tst  7.75E-08 PX  5.23E-04
 TTTTTTTTTTTTTTTTTTTTTTTTTTTTTT FDIK        TELAPSE       12.94 TCPU       12.92
 INSULATING STATE - TOP OF VALENCE BANDS (A.U.) -3.3519519E-01
 TTTTTTTTTTTTTTTTTTTTTTTTTTTTTT PDIG        TELAPSE       12.94 TCPU       12.92
 CHARGE NORMALIZATION FACTOR   1.00000000
 TOTAL ATOMIC CHARGES:
  10.1428061   9.0426319   0.8145620
 TTTTTTTTTTTTTTTTTTTTTTTTTTTTTT MOQGAD      TELAPSE       12.95 TCPU       12.92
 TTTTTTTTTTTTTTTTTTTTTTTTTTTTTT SHELLX      TELAPSE       12.99 TCPU       12.96
 TTTTTTTTTTTTTTTTTTTTTTTTTTTTTT MONMO3      TELAPSE       12.99 TCPU       12.96
 NUMERICALLY INTEGRATED DENSITY     19.9999998897
 TTTTTTTTTTTTTTTTTTTTTTTTTTTTTT NUMDFT      TELAPSE       14.13 TCPU       14.10
 CYC  11 ETOT(AU) -2.378628564011E+02 DETOT -8.18E-08 tst  1.88E-08 PX  2.57E-04
 TTTTTTTTTTTTTTTTTTTTTTTTTTTTTT FDIK        TELAPSE       14.13 TCPU       14.10
 INSULATING STATE - TOP OF VALENCE BANDS (A.U.) -3.3503199E-01
 TTTTTTTTTTTTTTTTTTTTTTTTTTTTTT PDIG        TELAPSE       14.13 TCPU       14.10
 CHARGE NORMALIZATION FACTOR   1.00000000
 TOTAL ATOMIC CHARGES:
  10.1428399   9.0425022   0.8146580
 TTTTTTTTTTTTTTTTTTTTTTTTTTTTTT MOQGAD      TELAPSE       14.13 TCPU       14.10
 TTTTTTTTTTTTTTTTTTTTTTTTTTTTTT SHELLX      TELAPSE       14.18 TCPU       14.15
 +++ ENERGIES IN A.U. +++
 ::: EXT EL-POLE                                   4.5267716264674E+00
 ::: EXT EL-SPHEROPOLE                             0.0000000000000E+00
 ::: BIELET ZONE E-E                               1.4647213606152E+02
 ::: TOTAL E-E                                     1.5099890768799E+02
 ::: TOTAL E-N + N-E                              -6.3365701289212E+02
 ::: TOTAL N-N                                     3.1291968042189E+01
 ::: KINETIC ENERGY                                2.3690709179971E+02
 ::: PSEUDO TOTAL   ENERGY                        -2.1445904536224E+02
 ::: VIRIAL COEFFICIENT                            1.0497335634849E+00
 TTTTTTTTTTTTTTTTTTTTTTTTTTTTTT MONMO3      TELAPSE       14.18 TCPU       14.15
 NUMERICALLY INTEGRATED DENSITY     19.9999998897
 TTTTTTTTTTTTTTTTTTTTTTTTTTTTTT NUMDFT      TELAPSE       15.32 TCPU       15.28
 CYC  12 ETOT(AU) -2.378628564218E+02 DETOT -2.06E-08 tst  4.51E-09 PX  2.57E-04

 == SCF ENDED - CONVERGENCE ON ENERGY      E(AU) -2.3786285642179E+02 CYCLES  12


 ENERGY EXPRESSION=HARTREE+FOCK EXCH*0.00000+(PBE   EXCH)*1.00000+PBE   CORR


 TOTAL ENERGY(DFT)(AU)( 12) -2.3786285642179E+02 DE-2.1E-08 tester 4.5E-09
 TTTTTTTTTTTTTTTTTTTTTTTTTTTTTT EDFT        TELAPSE       15.32 TCPU       15.28

 *******************************************************************************
 *                             FORCE CALCULATION                               *
 *******************************************************************************

 TTTTTTTTTTTTTTTTTTTTTTTTTTTTTT NUMDFG      TELAPSE       18.07 TCPU       18.03
 INFORMATION **** EXCPOG **** EXCH. BIPO BUFFER LENGTH (WORDS) =         0
 INFORMATION **** GENPOG **** BIPO BUFFER LENGTH (WORDS) =      6100
 TTTTTTTTTTTTTTTTTTTTTTTTTTTTTT SHELXG      TELAPSE       18.25 TCPU       18.20

 CARTESIAN FORCES (ANALYTICAL)
   ATOM                     X                   Y                   Z
   1  11            -1.993530219602E-04  8.576023233129E-04  2.016638653735E-04
   2   8            -1.795842555676E-02  7.724399905212E-02  1.816768906480E-02
   3   1             1.815777857911E-02 -7.810160137545E-02 -1.836935293012E-02

 RESULTANT FORCE     3.863576125696E-13 -1.509903313490E-14  5.595524044111E-14

 SYMMETRY ALLOWED FORCES (ANALYTICAL) (DIRECTION, FORCE)

    1 -6.4237354E-04    2  8.9754033E-04    3  7.5185503E-05    4 -1.1569700E-01
 TTTTTTTTTTTTTTTTTTTTTTTTTTTTTT TOTGRA      TELAPSE       18.27 TCPU       18.22
 INFORMATION **** opta001 **** GEOMETRY OUTPUT FILE
 CLASSICAL MODEL (SCHLEGEL) USED AS INITIAL HESSIAN MATRIX
 REFERENCE GEOMETRY DEFINED

 MAX GRADIENT      0.115697  THRESHOLD              0.000450 CONVERGED NO
 RMS GRADIENT      0.057851  THRESHOLD              0.000300 CONVERGED NO

 GRADIENT NORM     0.115702  GRADIENT THRESHOLD     0.500000

 PREDICTED ENERGY CHANGE     0.407E-03

 INITIAL DISPLACEMENTS
 -0.000360  0.000299  0.000061 -0.000636
 TTTTTTTTTTTTTTTTTTTTTTTTTTTTTT OPTI        TELAPSE       18.27 TCPU       18.22

 OPTOPTOPTOPTOPTOPTOPTOPTOPTOPTOPTOPTOPTOPTOPTOPTOPTOPTOPTOPTOPTOPTOPTOPTOPTOPT

 STARTING GEOMETRY OPTIMIZATION - INFORMATION ON SCF MOVED TO SCFOUT.LOG
 GEOMETRY OPTIMIZATION INFORMATION STORED IN OPTINFO.DAT

 OPTOPTOPTOPTOPTOPTOPTOPTOPTOPTOPTOPTOPTOPTOPTOPTOPTOPTOPTOPTOPTOPTOPTOPTOPTOPT
 *******************************************************************************
 COORDINATE OPTIMIZATION - POINT    2
 *******************************************************************************
 ATOMS IN THE ASYMMETRIC UNIT    3 - ATOMS IN THE UNIT CELL:    3
     ATOM          X(ANGSTROM)         Y(ANGSTROM)         Z(ANGSTROM)
 *******************************************************************************
   1 T  11 NA    1.061747949481E+00  2.595555182558E+00  1.372481346174E-01
   2 T   8 O     1.481145459178E+00  7.915722898426E-01 -2.869834690974E-01
   3 T   1 H     1.679796801224E+00 -6.340318786992E-02 -4.880088649400E-01

 T = ATOM BELONGING TO THE ASYMMETRIC UNIT

 TOTAL ENERGY(DFT)(AU)(  3) -2.3786293017363E+02     DE (AU)   -7.375E-05

 SYMMETRY ALLOWED FORCES  (COORDINATE, FORCE)

    1 -6.3346619E-04    2  8.6731057E-04    3  7.5586435E-05    4 -1.1466777E-01

 GRADIENT NORM     0.114673  GRADIENT THRESHOLD     0.500000

 PREDICTED ENERGY CHANGE     0.147E+00

 MAX GRADIENT      0.114668  THRESHOLD              0.000450 CONVERGED NO
 RMS GRADIENT      0.057336  THRESHOLD              0.000300 CONVERGED NO
 MAX DISPLAC.      0.070305  THRESHOLD              0.001800 CONVERGED NO
 RMS DISPLAC.      0.041091  THRESHOLD              0.001200 CONVERGED NO
 TTTTTTTTTTTTTTTTTTTTTTTTTTTTTT OPTI        TELAPSE       26.33 TCPU       26.28
 *******************************************************************************
 COORDINATE OPTIMIZATION - POINT    3
 *******************************************************************************
 ATOMS IN THE ASYMMETRIC UNIT    3 - ATOMS IN THE UNIT CELL:    3
     ATOM          X(ANGSTROM)         Y(ANGSTROM)         Z(ANGSTROM)
 *******************************************************************************
   1 T  11 NA    1.056173875114E+00  2.610918623555E+00  1.421583826356E-01
   2 T   8 O     1.482934722124E+00  8.106817819345E-01 -2.865264408613E-01
   3 T   1 H     1.683581612645E+00 -9.787612095828E-02 -4.933761411943E-01

 T = ATOM BELONGING TO THE ASYMMETRIC UNIT

 TOTAL ENERGY(DFT)(AU)(  9) -2.3786741356970E+02     DE (AU)   -4.483E-03

 SYMMETRY ALLOWED FORCES  (COORDINATE, FORCE)

    1 -8.4791237E-04    2  8.0062998E-04    3  2.1109740E-04    4 -1.7376781E-02

 GRADIENT NORM     0.017417  GRADIENT THRESHOLD     0.500000

 PREDICTED ENERGY CHANGE    -0.101E-03

 MAX GRADIENT      0.017377  THRESHOLD              0.000450 CONVERGED NO
 RMS GRADIENT      0.008709  THRESHOLD              0.000300 CONVERGED NO
 MAX DISPLAC.      0.013113  THRESHOLD              0.001800 CONVERGED NO
 RMS DISPLAC.      0.010055  THRESHOLD              0.001200 CONVERGED NO
 TTTTTTTTTTTTTTTTTTTTTTTTTTTTTT OPTI        TELAPSE       41.49 TCPU       41.45
 *******************************************************************************
 COORDINATE OPTIMIZATION - POINT    4
 *******************************************************************************
 ATOMS IN THE ASYMMETRIC UNIT    3 - ATOMS IN THE UNIT CELL:    3
     ATOM          X(ANGSTROM)         Y(ANGSTROM)         Z(ANGSTROM)
 *******************************************************************************
   1 T  11 NA    1.054184846443E+00  2.616475091873E+00  1.438960407893E-01
   2 T   8 O     1.484523335233E+00  8.131821926612E-01 -2.872794671077E-01
   3 T   1 H     1.683982028206E+00 -1.059330000029E-01 -4.943607731015E-01

 T = ATOM BELONGING TO THE ASYMMETRIC UNIT

 TOTAL ENERGY(DFT)(AU)(  7) -2.3786755792531E+02     DE (AU)   -1.444E-04

 SYMMETRY ALLOWED FORCES  (COORDINATE, FORCE)

    1  1.2080757E-04    2 -3.4625911E-04    3  3.5911365E-05    4 -3.7015997E-03

 GRADIENT NORM     0.003720  GRADIENT THRESHOLD     0.500000

 PREDICTED ENERGY CHANGE     0.661E-04

 MAX GRADIENT      0.003702  THRESHOLD              0.000450 CONVERGED NO
 RMS GRADIENT      0.001860  THRESHOLD              0.000300 CONVERGED NO
 MAX DISPLAC.      0.003249  THRESHOLD              0.001800 CONVERGED NO
 RMS DISPLAC.      0.001828  THRESHOLD              0.001200 CONVERGED NO
 TTTTTTTTTTTTTTTTTTTTTTTTTTTTTT OPTI        TELAPSE       54.27 TCPU       54.23
 *******************************************************************************
 COORDINATE OPTIMIZATION - POINT    5
 *******************************************************************************
 ATOMS IN THE ASYMMETRIC UNIT    3 - ATOMS IN THE UNIT CELL:    3
     ATOM          X(ANGSTROM)         Y(ANGSTROM)         Z(ANGSTROM)
 *******************************************************************************
   1 T  11 NA    1.054113296537E+00  2.616251547810E+00  1.440414801295E-01
   2 T   8 O     1.484572157344E+00  8.146252639387E-01 -2.875561444072E-01
   3 T   1 H     1.684004756002E+00 -1.071525272181E-01 -4.942295351424E-01

 T = ATOM BELONGING TO THE ASYMMETRIC UNIT

 TOTAL ENERGY(DFT)(AU)(  4) -2.3786756415774E+02     DE (AU)   -6.232E-06

 SYMMETRY ALLOWED FORCES  (COORDINATE, FORCE)

    1 -1.3085719E-04    2  7.4634391E-05    3  4.9782912E-05    4 -8.0356491E-06

 GRADIENT NORM     0.000159  GRADIENT THRESHOLD     0.500000

 PREDICTED ENERGY CHANGE    -0.757E-07

 MAX GRADIENT      0.000131  THRESHOLD              0.000450 CONVERGED YES
 RMS GRADIENT      0.000079  THRESHOLD              0.000300 CONVERGED YES
 MAX DISPLAC.      0.000869  THRESHOLD              0.001800 CONVERGED YES
 RMS DISPLAC.      0.000537  THRESHOLD              0.001200 CONVERGED YES

 CONVERGENCE TESTS SATISFIED AFTER   5 ENERGY AND GRADIENT CALCULATIONS

 ******************************************************************
 * OPT END - CONVERGED * E(AU):  -2.378675641577E+02  POINTS    5 *
 ******************************************************************

 EIGENVECTORS IN FORTRAN UNIT 10

 NEIGHBORS OF THE NON-EQUIVALENT ATOMS

 N = NUMBER OF NEIGHBORS AT DISTANCE R
    ATOM  N     R/ANG      R/AU   NEIGHBORS (ATOM LABELS AND CELL INDICES)
   1 NA   1     1.9020     3.5942   2 O    0 0 0
   1 NA   1     2.8672     5.4183   3 H    0 0 0

   2 O    1     0.9655     1.8245   3 H    0 0 0
   2 O    1     1.9020     3.5942   1 NA   0 0 0

   3 H    1     0.9655     1.8245   2 O    0 0 0
   3 H    1     2.8672     5.4183   1 NA   0 0 0


 FINAL OPTIMIZED GEOMETRY - DIMENSIONALITY OF THE SYSTEM      0
 (NON PERIODIC DIRECTION: LATTICE PARAMETER FORMALLY SET TO 500)
 *******************************************************************************
 ATOMS IN THE ASYMMETRIC UNIT    3 - ATOMS IN THE UNIT CELL:    3
     ATOM          X(ANGSTROM)         Y(ANGSTROM)         Z(ANGSTROM)
 *******************************************************************************
   1 T  11 NA    1.054113296537E+00  2.616251547810E+00  1.440414801295E-01
   2 T   8 O     1.484572157344E+00  8.146252639387E-01 -2.875561444072E-01
   3 T   1 H     1.684004756002E+00 -1.071525272181E-01 -4.942295351424E-01

 T = ATOM BELONGING TO THE ASYMMETRIC UNIT
 INFORMATION **** fort.34 **** GEOMETRY OUTPUT FILE

 ****   1 SYMMOPS - TRANSLATORS IN FRACTIONARY UNITS
  V INV                   ROTATION MATRICES                       TRANSLATOR
  1  1  1.00  0.00  0.00  0.00  1.00  0.00  0.00  0.00  1.00    0.00  0.00  0.00
 TTTTTTTTTTTTTTTTTTTTTTTTTTTTTT END         TELAPSE       63.53 TCPU       63.48
 EEEEEEEEEE TERMINATION  DATE 31 03 2008 TIME 15:54:51.8
NODE    0 CPU TIME =        63.480
    TOTAL CPU TIME =        63.480
FORTRAN STOP
Mon Mar 31 15:54:51 CEST 2008
