SN polymer
POLYMER
4
4.431
2
16  0.000000 -0.844969  0.000000
7   0.141600  0.667077 -0.000930
END
16 3
1 0 3  2.  0.
1 1 3  8.  0.
1 1 3  6.  0.
7 2
1 0 3  2.  0.
1 1 3  5.  0.
99   0
END
SHRINK
13 13
END

         
 *******************************************************************************
 *                                                                             *
 *                                CRYSTAL06                                    *
 *                              Release : 1.0                                  *
 *                           V1.0.1                                            *
 *                                                                             *
 *                                                                             *
 *                                                                             *
 *                              MAIN AUTHORS                                   *
 *                                                                             *
 *        R. DOVESI(1), V.R. SAUNDERS(2), C. ROETTI(1), R. ORLANDO (1,3),      *
 *     C.M. ZICOVICH-WILSON(1,4), F. PASCALE(5), B. CIVALLERI(1), K. DOLL(6),  *
 *        N.M. HARRISON(2,7), I. J. BUSH(2), Ph. D'ARCO(8), M. LLUNELL(9)      *
 *                                                                             *
 * (1) THEORETICAL CHEMISTRY GROUP - UNIVERSITA' DI TORINO - TORINO (ITALY)    *
 *      http://www.crystal.unito.it                                            *
 * (2) COMPUTATIONAL SCIENCE & ENGINEERING DEPARTMENT - CCLRC DARESBURY (UK)   *
 *     http://www.cse.clrc.ac.uk/cmg/CRYSTAL/                                  *
 * (3) UNIVERSITA' DEL PIEMONTE ORIENTALE - ALESSANDRIA (ITALY)                *
 * (4) UNIVERSIDAD AUTONOMA DEL ESTADO DE MORELOS - CUERNAVACA (MEXICO)        *
 * (5) UNIVERSITE' HENRI POINCARE' - NANCY (FRANCE)                            *
 * (6) TU BRAUNSCHWEIG - BRAUNSCHWEIG (GERMANY)                                *
 * (7) IMPERIAL COLLEGE - LONDON (UK)                                          *
 * (8) UNIVERSITE' PIERRE ET MARIE CURIE - PARIS (FRANCE)                      *
 * (9) UNIVERSIDAD DE BARCELONA - BARCELONA (SPAIN)                            *
 *******************************************************************************
 EEEEEEEEEE STARTING  DATE 10 02 2010 TIME 10:14:39.4
 SN polymer                                                                      

 POLYMER CALCULATION
 POLYMER GROUP N.  4                  :  P 21 1 1        
 CORRESPONDING SPACE GROUP            :  P 1 1 21        
 (THE SPACE GROUP SYMBOL AND EQUIVALENT POSITIONS REFER TO A Z-ORIENTED POLYMER)

 LATTICE PARAMETER (ANGSTROMS) - CONVENTIONAL CELL        4.43100


 NUMBER OF IRREDUCIBLE ATOMS IN THE CONVENTIONAL CELL:    2

 INPUT COORDINATES

 ATOM AT. N.              COORDINATES
   1  16     0.000000000000E+00 -8.449690000000E-01  0.000000000000E+00
   2   7     1.416000000000E-01  6.670770000000E-01 -9.300000000000E-04

 *******************************************************************************

 << INFORMATION >>: FROM NOW ON, ALL COORDINATES REFER TO THE PRIMITIVE CELL

 *******************************************************************************

 LATTICE PARAMETERS  (ANGSTROMS AND DEGREES) - PRIMITIVE CELL
       A          B          C         ALPHA     BETA     GAMMA        VOLUME
    4.43100  500.00000  500.00000    90.00000  90.00000  90.00000      4.431000

 COORDINATES OF THE EQUIVALENT ATOMS (ANGSTROMS)

 N. ATOM EQUIV AT. N.          X                  Y                  Z

   1   1   1   16 S     0.00000000000E+00 -8.44969000000E-01  0.00000000000E+00
   2   1   2   16 S    -2.21550000000E+00  8.44969000000E-01  1.35655768845E-16

   3   2   1    7 N     6.27429600000E-01  6.67077000000E-01 -9.30000000000E-04
   4   2   2    7 N    -1.58807040000E+00 -6.67077000000E-01  9.30000000000E-04

 NUMBER OF SYMMETRY OPERATORS         :    2
 *******************************************************************************
 * GEOMETRY EDITING - INPUT COORDINATES ARE GIVEN IN ANGSTROM          
 *******************************************************************************

 GEOMETRY NOW FULLY CONSISTENT WITH THE GROUP

 GCALCO - MAX INDICES DIRECT LATTICE VECTOR5998   0   0
 NO.OF VECTORS CREATED 2999 STARS 1500 RMAX 12551.69137 BOHR

 GEOMETRY FOR WAVE FUNCTION - DIMENSIONALITY OF THE SYSTEM    1
 (NON PERIODIC DIRECTION: LATTICE PARAMETER FORMALLY SET TO 500)
 *******************************************************************************
 LATTICE PARAMETERS (ANGSTROMS AND DEGREES) - BOHR = 0.5291772083 ANGSTROM
 PRIMITIVE CELL
         A              B              C           ALPHA      BETA       GAMMA 
     4.43100000   500.00000000   500.00000000    90.000000  90.000000  90.000000
 *******************************************************************************
 ATOMS IN THE ASYMMETRIC UNIT    2 - ATOMS IN THE UNIT CELL:    4
     ATOM              X/A             Y(ANGSTROM)         Z(ANGSTROM)
 *******************************************************************************
   1 T  16 S     0.000000000000E+00 -8.449690000000E-01  0.000000000000E+00
   2 F  16 S    -5.000000000000E-01  8.449690000000E-01  0.000000000000E+00
   3 T   7 N     1.416000000000E-01  6.670770000000E-01 -9.300000000000E-04
   4 F   7 N    -3.584000000000E-01 -6.670770000000E-01  9.299999999999E-04

 T = ATOM BELONGING TO THE ASYMMETRIC UNIT

 ****   2 SYMMOPS - TRANSLATORS IN FRACTIONARY UNITS
  V INV                   ROTATION MATRICES                       TRANSLATOR
  1  1  1.00  0.00  0.00  0.00  1.00  0.00  0.00  0.00  1.00    0.00  0.00  0.00
  2  2  1.00  0.00  0.00  0.00 -1.00  0.00  0.00  0.00 -1.00    0.50  0.00  0.00

 DIRECT LATTICE VECTORS CARTESIAN COMPONENTS (ANGSTROM)
          X                    Y                    Z
   0.443100000000E+01   0.000000000000E+00   0.000000000000E+00
   0.000000000000E+00   0.500000000000E+03   0.000000000000E+00
   0.000000000000E+00   0.000000000000E+00   0.500000000000E+03


 CARTESIAN COORDINATES - PRIMITIVE CELL
 *******************************************************************************
 *      ATOM          X(ANGSTROM)         Y(ANGSTROM)         Z(ANGSTROM)
 *******************************************************************************
   1    16 S     0.000000000000E+00 -8.449690000000E-01  0.000000000000E+00
   2    16 S     2.215500000000E+00  8.449690000000E-01  0.000000000000E+00
   3     7 N     6.274296000000E-01  6.670770000000E-01 -9.300000000000E-04
   4     7 N    -1.588070400000E+00 -6.670770000000E-01  9.299999999999E-04

 *******************************************************************************
 LOCAL ATOMIC FUNCTIONS BASIS SET
 *******************************************************************************
   ATOM  X(AU)  Y(AU)  Z(AU)    NO. TYPE  EXPONENT  S COEF   P COEF   D/F/G COEF
 *******************************************************************************
   1 S   0.000 -1.597  0.000
                                  1 S  
                                         5.331E+02 1.543E-01 0.000E+00 0.000E+00
                                         9.711E+01 5.353E-01 0.000E+00 0.000E+00
                                         2.628E+01 4.446E-01 0.000E+00 0.000E+00
                             2-   5 SP 
                                         3.333E+01-9.997E-02 1.559E-01 0.000E+00
                                         7.745E+00 3.995E-01 6.077E-01 0.000E+00
                                         2.519E+00 7.001E-01 3.920E-01 0.000E+00
                             6-   9 SP 
                                         2.029E+00-2.196E-01 1.059E-02 0.000E+00
                                         5.661E-01 2.256E-01 5.952E-01 0.000E+00
                                         2.216E-01 9.004E-01 4.620E-01 0.000E+00
   2 S   4.187  1.597  0.000
   3 N   1.186  1.261 -0.002
                                 19 S  
                                         9.911E+01 1.543E-01 0.000E+00 0.000E+00
                                         1.805E+01 5.353E-01 0.000E+00 0.000E+00
                                         4.886E+00 4.446E-01 0.000E+00 0.000E+00
                            20-  23 SP 
                                         3.780E+00-9.997E-02 1.559E-01 0.000E+00
                                         8.785E-01 3.995E-01 6.077E-01 0.000E+00
                                         2.857E-01 7.001E-01 3.920E-01 0.000E+00
   4 N  -3.001 -1.261  0.002
 *******************************************************************************
 N. OF ATOMS PER CELL        4  COULOMB OVERLAP TOL         (T1) 10** -6
 NUMBER OF SHELLS           10  COULOMB PENETRATION TOL     (T2) 10** -6
 NUMBER OF AO               28  EXCHANGE OVERLAP TOL        (T3) 10** -6
 N. OF ELECTRONS PER CELL   46  EXCHANGE PSEUDO OVP (F(G))  (T4) 10** -6
 CORE ELECTRONS PER CELL    24  EXCHANGE PSEUDO OVP (P(G))  (T5) 10**-12
 N. OF SYMMETRY OPERATORS    2  POLE ORDER IN MONO ZONE                4
 *******************************************************************************
 TYPE OF CALCULATION :  RESTRICTED CLOSED SHELL
 HARTREE-FOCK HAMILTONIAN
 *******************************************************************************
 MAX NUMBER OF SCF CYCLES      50  CONVERGENCE ON DELTAP        10**-16
 NO MIXING OF F MATRICES           CONVERGENCE ON ENERGY        10**- 5
 SHRINK. FACT.(MONKH.)   13  1  1  NUMBER OF K POINTS IN THE IBZ      7
 SHRINKING FACTOR(GILAT NET)   13  NUMBER OF K POINTS(GILAT NET)      7
 *******************************************************************************
 *** K POINTS COORDINATES (OBLIQUE COORDINATES IN UNITS OF IS = 13)
   1-R(  0  0  0)   2-C(  1  0  0)   3-C(  2  0  0)   4-C(  3  0  0)
   5-C(  4  0  0)   6-C(  5  0  0)   7-C(  6  0  0)

 DIRECT LATTICE VECTORS COMPON. (A.U.)     RECIP. LATTICE VECTORS COMPON. (A.U.) 
        X            Y            Z              X            Y            Z
    8.3733765    0.0000000    0.0000000      0.7503765    0.0000000    0.0000000
    0.0000000  944.8630670    0.0000000      0.0000000    0.0066498    0.0000000
    0.0000000    0.0000000  944.8630670      0.0000000    0.0000000    0.0066498

 DISK SPACE FOR EIGENVECTORS (FTN 10)      10192 REALS

 SYMMETRY ADAPTION OF THE BLOCH FUNCTIONS ENABLED

 DIMENSIONS  P(G)=    1924 F(G)=     664 P(G),F(G) (IRR)     602
 MAX G-VECTOR INDEX FOR 1- AND 2-ELECTRON INTEGRALS   5

 INFORMATION **** GENBUF **** COULOMB BIPO BUFFER LENGTH (WORDS) =     17100
 TTTTTTTTTTTTTTTTTTTTTTTTTTTTTT INPUT       TELAPSE        0.01 TCPU        0.02

 NEIGHBORS OF THE NON-EQUIVALENT ATOMS

 N = NUMBER OF NEIGHBORS AT DISTANCE R
    ATOM  N     R/ANG      R/AU   NEIGHBORS (ATOM LABELS AND CELL INDICES)
   1 S    1     1.5980     3.0198   4 N    0 0 0
   1 S    1     1.6371     3.0936   3 N    0 0 0
   1 S    2     2.7865     5.2656   2 S    0 0 0   2 S   -1 0 0
   1 S    1     2.8485     5.3829   4 N    1 0 0
   1 S    1     4.0931     7.7348   3 N   -1 0 0
   1 S    2     4.4310     8.3734   1 S   -1 0 0   1 S    1 0 0

   3 N    1     1.5980     3.0198   2 S    0 0 0
   3 N    1     1.6371     3.0936   1 S    0 0 0
   3 N    2     2.5862     4.8872   4 N    0 0 0   4 N    1 0 0
   3 N    1     2.8485     5.3829   2 S   -1 0 0
   3 N    1     4.0931     7.7348   1 S    1 0 0
   3 N    2     4.4310     8.3734   3 N   -1 0 0   3 N    1 0 0


 SYMMETRY ALLOWED INTERNAL DEGREE(S) OF FREEDOM:   4
 TTTTTTTTTTTTTTTTTTTTTTTTTTTTTT SYMM        TELAPSE        0.02 TCPU        0.02
 INFORMATION **** GENBUF **** COULOMB BIPO BUFFER LENGTH (WORDS) =     17100
 INFORMATION **** EXCBUF **** EXCH. BIPO BUFFER: WORDS USED =     15588
 TTTTTTTTTTTTTTTTTTTTTTTTTTTTTT MONIRR      TELAPSE        0.03 TCPU        0.03

  GAUSS70 FOR COULOMB   GAUSS70 FOR EXCHANGE
 **SHELL_ORTHODOX** SPACE FOR BIEL. INTEGRALS     1 BUFFERS
 TTTTTTTTTTTTTTTTTTTTTTTTTTTTTT SHLC        TELAPSE        0.17 TCPU        0.17
 TTTTTTTTTTTTTTTTTTTTTTTTTTTTTT MONMAD      TELAPSE        0.19 TCPU        0.19
 EEEEEEEEEE INT_CALC TERMINATION  DATE 10 02 2010 TIME 10:14:39.6

 *******************************************************************************
 SN polymer                                                                      
 CRYSTAL - SCF - TYPE OF CALCULATION :  RESTRICTED CLOSED SHELL
 *******************************************************************************
 TTTTTTTTTTTTTTTTTTTTTTTTTTTTTT SDIK        TELAPSE        0.19 TCPU        0.20

 AAAAAAAAAAAAAAAAAAAAAAAAAAAAAAAAAAAAAAAAAAAAAAAAAAAAAAAAAAAAAAAAAAAAAAAAAAAAAAA
         ATOMIC WAVEFUNCTION(S)


 NUCLEAR CHARGE 16.0  SYMMETRY SPECIES            S    P
 N. ELECTRONS   16.0  NUMBER OF PRIMITIVE GTOS    9    6
                      NUMBER OF CONTRACTED GTOS   3    2
                      NUMBER OF CLOSED SHELLS     3    1
                      OPEN SHELL OCCUPATION       0    4

  ZNUC SCFIT  TOTAL HF ENERGY   KINETIC ENERGY   VIRIAL THEOREM ACCURACY
  16.0   4   -3.931302194E+02  3.892210109E+02 -2.010043673E+00  3.5E-07

 NUCLEAR CHARGE  7.0  SYMMETRY SPECIES            S    P
 N. ELECTRONS    7.0  NUMBER OF PRIMITIVE GTOS    6    3
                      NUMBER OF CONTRACTED GTOS   2    1
                      NUMBER OF CLOSED SHELLS     2    0
                      OPEN SHELL OCCUPATION       0    3

  ZNUC SCFIT  TOTAL HF ENERGY   KINETIC ENERGY   VIRIAL THEOREM ACCURACY
   7.0   1   -5.371901019E+01  5.366407314E+01 -2.001023721E+00  0.0E+00

 AAAAAAAAAAAAAAAAAAAAAAAAAAAAAAAAAAAAAAAAAAAAAAAAAAAAAAAAAAAAAAAAAAAAAAAAAAAAAAA

 CHARGE NORMALIZATION FACTOR   1.00000000
 TOTAL ATOMIC CHARGES:
  16.0000000  16.0000000   7.0000000   7.0000000
 TTTTTTTTTTTTTTTTTTTTTTTTTTTTTT QGAM        TELAPSE        0.19 TCPU        0.20
 TTTTTTTTTTTTTTTTTTTTTTTTTTTTTT BIEL        TELAPSE        0.20 TCPU        0.20
 TTTTTTTTTTTTTTTTTTTTTTTTTTTTTT TOTENY      TELAPSE        0.20 TCPU        0.20
 CYC   0 ETOT(AU) -8.940320357604E+02 DETOT -8.94E+02 tst  0.00E+00 PX  1.00E+00
 TTTTTTTTTTTTTTTTTTTTTTTTTTTTTT FDIK        TELAPSE        0.21 TCPU        0.22
 POSSIBLY CONDUCTING STATE - EFERMI(AU)  7.8334356E-02 (RES. CHARGE  0.00E+00;IT.  0)
 TTTTTTTTTTTTTTTTTTTTTTTTTTTTTT PDIG        TELAPSE        0.21 TCPU        0.22
 CHARGE NORMALIZATION FACTOR   1.00000000
 TOTAL ATOMIC CHARGES:
  15.3016785  15.3016785   7.6983215   7.6983215
 TTTTTTTTTTTTTTTTTTTTTTTTTTTTTT QGAM        TELAPSE        0.21 TCPU        0.22
 TTTTTTTTTTTTTTTTTTTTTTTTTTTTTT BIEL        TELAPSE        0.22 TCPU        0.22
 TTTTTTTTTTTTTTTTTTTTTTTTTTTTTT TOTENY      TELAPSE        0.22 TCPU        0.23
 CYC   1 ETOT(AU) -8.936199915804E+02 DETOT  4.12E-01 tst  0.00E+00 PX  1.00E+00
 TTTTTTTTTTTTTTTTTTTTTTTTTTTTTT FDIK        TELAPSE        0.22 TCPU        0.23
 INSULATING STATE - TOP OF VALENCE BANDS (A.U.) -1.5098252E-02
 TTTTTTTTTTTTTTTTTTTTTTTTTTTTTT PDIG        TELAPSE        0.23 TCPU        0.23
 CHARGE NORMALIZATION FACTOR   1.00000000
 TOTAL ATOMIC CHARGES:
  15.5138280  15.5138280   7.4861720   7.4861720
 TTTTTTTTTTTTTTTTTTTTTTTTTTTTTT QGAM        TELAPSE        0.23 TCPU        0.23
 TTTTTTTTTTTTTTTTTTTTTTTTTTTTTT BIEL        TELAPSE        0.24 TCPU        0.25
 TTTTTTTTTTTTTTTTTTTTTTTTTTTTTT TOTENY      TELAPSE        0.24 TCPU        0.25
 CYC   2 ETOT(AU) -8.936348491459E+02 DETOT -1.49E-02 tst  3.92E-03 PX  8.54E-02
 TTTTTTTTTTTTTTTTTTTTTTTTTTTTTT FDIK        TELAPSE        0.24 TCPU        0.25
 INSULATING STATE - TOP OF VALENCE BANDS (A.U.) -3.5610685E-02
 TTTTTTTTTTTTTTTTTTTTTTTTTTTTTT PDIG        TELAPSE        0.24 TCPU        0.25
 CHARGE NORMALIZATION FACTOR   1.00000000
 TOTAL ATOMIC CHARGES:
  15.4359223  15.4359223   7.5640777   7.5640777
 TTTTTTTTTTTTTTTTTTTTTTTTTTTTTT QGAM        TELAPSE        0.24 TCPU        0.25
 TTTTTTTTTTTTTTTTTTTTTTTTTTTTTT BIEL        TELAPSE        0.25 TCPU        0.25
 TTTTTTTTTTTTTTTTTTTTTTTTTTTTTT TOTENY      TELAPSE        0.25 TCPU        0.25
 CYC   3 ETOT(AU) -8.936365503062E+02 DETOT -1.70E-03 tst  4.79E-04 PX  3.63E-02
 TTTTTTTTTTTTTTTTTTTTTTTTTTTTTT FDIK        TELAPSE        0.26 TCPU        0.25
 INSULATING STATE - TOP OF VALENCE BANDS (A.U.) -2.6893823E-02
 TTTTTTTTTTTTTTTTTTTTTTTTTTTTTT PDIG        TELAPSE        0.26 TCPU        0.25
 CHARGE NORMALIZATION FACTOR   1.00000000
 TOTAL ATOMIC CHARGES:
  15.4649499  15.4649499   7.5350501   7.5350501
 TTTTTTTTTTTTTTTTTTTTTTTTTTTTTT QGAM        TELAPSE        0.26 TCPU        0.25
 TTTTTTTTTTTTTTTTTTTTTTTTTTTTTT BIEL        TELAPSE        0.27 TCPU        0.27
 TTTTTTTTTTTTTTTTTTTTTTTTTTTTTT TOTENY      TELAPSE        0.27 TCPU        0.27
 CYC   4 ETOT(AU) -8.936367789020E+02 DETOT -2.29E-04 tst  9.91E-05 PX  1.18E-02
 TTTTTTTTTTTTTTTTTTTTTTTTTTTTTT FDIK        TELAPSE        0.27 TCPU        0.27
 INSULATING STATE - TOP OF VALENCE BANDS (A.U.) -2.9932022E-02
 TTTTTTTTTTTTTTTTTTTTTTTTTTTTTT PDIG        TELAPSE        0.27 TCPU        0.27
 CHARGE NORMALIZATION FACTOR   1.00000000
 TOTAL ATOMIC CHARGES:
  15.4539534  15.4539534   7.5460466   7.5460466
 TTTTTTTTTTTTTTTTTTTTTTTTTTTTTT QGAM        TELAPSE        0.27 TCPU        0.27
 TTTTTTTTTTTTTTTTTTTTTTTTTTTTTT BIEL        TELAPSE        0.28 TCPU        0.28
 TTTTTTTTTTTTTTTTTTTTTTTTTTTTTT TOTENY      TELAPSE        0.28 TCPU        0.28
 CYC   5 ETOT(AU) -8.936368143916E+02 DETOT -3.55E-05 tst  7.36E-06 PX  5.38E-03
 TTTTTTTTTTTTTTTTTTTTTTTTTTTTTT FDIK        TELAPSE        0.29 TCPU        0.28
 INSULATING STATE - TOP OF VALENCE BANDS (A.U.) -2.8709076E-02
 TTTTTTTTTTTTTTTTTTTTTTTTTTTTTT PDIG        TELAPSE        0.29 TCPU        0.28
 CHARGE NORMALIZATION FACTOR   1.00000000
 TOTAL ATOMIC CHARGES:
  15.4578934  15.4578934   7.5421066   7.5421066
 TTTTTTTTTTTTTTTTTTTTTTTTTTTTTT QGAM        TELAPSE        0.29 TCPU        0.28
 TTTTTTTTTTTTTTTTTTTTTTTTTTTTTT BIEL        TELAPSE        0.30 TCPU        0.30
 TTTTTTTTTTTTTTTTTTTTTTTTTTTTTT TOTENY      TELAPSE        0.30 TCPU        0.30
 CYC   6 ETOT(AU) -8.936368198499E+02 DETOT -5.46E-06 tst  2.40E-06 PX  1.81E-03
 TTTTTTTTTTTTTTTTTTTTTTTTTTTTTT FDIK        TELAPSE        0.31 TCPU        0.30
 INSULATING STATE - TOP OF VALENCE BANDS (A.U.) -2.9115546E-02
 TTTTTTTTTTTTTTTTTTTTTTTTTTTTTT PDIG        TELAPSE        0.31 TCPU        0.30
 CHARGE NORMALIZATION FACTOR   1.00000000
 TOTAL ATOMIC CHARGES:
  15.4563450  15.4563450   7.5436550   7.5436550
 TTTTTTTTTTTTTTTTTTTTTTTTTTTTTT QGAM        TELAPSE        0.31 TCPU        0.30
 TTTTTTTTTTTTTTTTTTTTTTTTTTTTTT BIEL        TELAPSE        0.32 TCPU        0.31
 +++ ENERGIES IN A.U. +++
 ::: EXT EL-POLE : L =  0                         -6.0634749608473E+02
 ::: EXT EL-POLE : L =  1                         -1.3720470314866E-01
 ::: EXT EL-POLE : L =  2                         -7.0753102910156E-02
 ::: EXT EL-POLE : L =  3                         -2.7011917060656E-04
 ::: EXT EL-POLE : L =  4                         -2.3047338794582E-03
 ::: EXT EL-SPHEROPOLE                             0.0000000000000E+00
 ::: BIELET ZONE E-E                               6.0742089050925E+02
 ::: TOTAL E-E                                     8.6286176541222E-01
 ::: TOTAL E-N + N-E                              -1.4353973729393E+03
 ::: TOTAL N-N                                    -3.4243712548517E+02
 ::: KINETIC ENERGY                                8.8333481554856E+02
 ::: TOTAL   ENERGY                               -8.9363682111051E+02
 ::: VIRIAL COEFFICIENT                            9.9420249296645E-01
 TTTTTTTTTTTTTTTTTTTTTTTTTTTTTT TOTENY      TELAPSE        0.32 TCPU        0.31
 CYC   7 ETOT(AU) -8.936368211105E+02 DETOT -1.26E-06 tst  1.94E-07 PX  1.81E-03

 == SCF ENDED - CONVERGENCE ON ENERGY      E(AU) -8.9363682111051E+02 CYCLES   7

 TOTAL ENERGY(HF)(AU)(   7) -8.9363682111051E+02 DE-1.3E-06 tst 1.9E-07 PX 1.8E-03
 EIGENVECTORS IN FORTRAN UNIT 10
 TTTTTTTTTTTTTTTTTTTTTTTTTTTTTT END         TELAPSE        0.34 TCPU        0.33
 EEEEEEEEEE TERMINATION  DATE 10 02 2010 TIME 10:14:39.7
