date Wed Jan 20 14:47:29 GMT 2010
hostname pcphy162
system Linux pcphy162 2.6.24-26-386 #1 Tue Dec 1 17:56:13 UTC 2009 i686 GNU/Linux
user pc229
executable in /home/pc229/bin/Crystal06/bin/Linux-pgf/v1_0_1
temporary directory /home/pc229/bin/Cry_tmp/tmp23781
output in /media/external/PhD-Kent/Counts/CRY/Molecules/S2_CRYSTAL_PBE/S2.out
input data /media/external/PhD-Kent/Counts/CRY/Molecules/S2_CRYSTAL_PBE/S2.d12
S2 6-31GG*
MOLECULE
 1 
 2
16     -0.316553290805   -0.092958204567   -0.403192082788
 16     0.669702663304   0.071058936422   1.200708653058
OPTGEOM
END
END
16 6
0 0 6 2.0 1.0
 21917.1000000  0.0018690       
   3301.4900000 0.0142300       
    754.1460000 0.0696960       
    212.7110000 0.2384870       
     67.9896000 0.4833070       
     23.0515000 0.3380740 
0 1 6 8.0 1.0
 423.7350000 -0.0023767 0.0040610       
    100.7100000 -0.0316930 0.0306810       
     32.1599000 -0.1133170 0.1304520       
     11.8079000 0.0560900  0.3272050       
      4.6311000 0.5922550  0.4528510       
      1.8702500 0.4550060  0.2560420
0 1 3 6.0 1.0
 2.6158400 -0.2503740 -0.0145110       
   0.9221670 0.0669570 0.3102630       
     0.3412870 1.0545100 0.7544830
0 1 1 0.0 1.0
  0.1171839   1.0000000 1.0000000
0 1 1 0.0 1.0
  0.9934622 1.0000000 1.00
0 3 1 0.0 1.00
   0.6681061 0.6500000 1.0000000  
99 0
END
SCFDIR
DFT
EXCHANGE
PBE
CORRELAT
PBE
XLGRID
ENDDFT
FMIXING
90
LEVSHIFT
16 1
END

external geometry input found in /media/external/PhD-Kent/Counts/CRY/Molecules/S2_CRYSTAL_PBE/S2.gui

         
 *******************************************************************************
 *                                                                             *
 *                                CRYSTAL06                                    *
 *                          Release 1.0 - v1_0_1                               *
 *                                                                             *
 *                          Compiled:  03 ott 2006 08:32                       *
 *                          Xmake: Linux-pgf_P                                 *
 *                                                                             *
 *                                                                             *
 *                              MAIN AUTHORS                                   *
 *                                                                             *
 *        R. DOVESI(1), V.R. SAUNDERS(2), C. ROETTI(1), R. ORLANDO (1,3),      *
 *     C.M. ZICOVICH-WILSON(1,4), F. PASCALE(5), B. CIVALLERI(1), K. DOLL(6),  *
 *        N.M. HARRISON(2,7), I. J. BUSH(2), Ph. D'ARCO(8), M. LLUNELL(9)      *
 *                                                                             *
 * (1) THEORETICAL CHEMISTRY GROUP - UNIVERSITA' DI TORINO - TORINO (ITALY)    *
 *      http://www.crystal.unito.it                                            *
 * (2) COMPUTATIONAL SCIENCE & ENGINEERING DEPARTMENT - CCLRC DARESBURY (UK)   *
 *     http://www.cse.clrc.ac.uk/cmg/CRYSTAL/                                  *
 * (3) UNIVERSITA' DEL PIEMONTE ORIENTALE - ALESSANDRIA (ITALY)                *
 * (4) UNIVERSIDAD AUTONOMA DEL ESTADO DE MORELOS - CUERNAVACA (MEXICO)        *
 * (5) UNIVERSITE' HENRI POINCARE' - NANCY (FRANCE)                            *
 * (6) TU BRAUNSCHWEIG - BRAUNSCHWEIG (GERMANY)                                *
 * (7) IMPERIAL COLLEGE - LONDON (UK)                                          *
 * (8) UNIVERSITE' PIERRE ET MARIE CURIE - PARIS (FRANCE)                      *
 * (9) UNIVERSIDAD DE BARCELONA - BARCELONA (SPAIN)                            *
 *******************************************************************************
 EEEEEEEEEE STARTING  DATE 20 01 2010 TIME 14:47:29.5
 S2 6-31GG*                                                                      

 MOLECULAR CALCULATION
 POINT  GROUP  N.  1                  :  1      OR  C1   
 CORRESPONDING SPACE GROUP            :  P 1             


 NUMBER OF IRREDUCIBLE ATOMS IN THE CONVENTIONAL CELL:    2

 INPUT COORDINATES

 ATOM AT. N.              COORDINATES
   1  16    -3.165532908050E-01 -9.295820456700E-02 -4.031920827880E-01
   2  16     6.697026633040E-01  7.105893642200E-02  1.200708653058E+00

 COORDINATES OF THE EQUIVALENT ATOMS (ANGSTROMS)

 N. ATOM EQUIV AT. N.          X                  Y                  Z

   1   1   1   16 S    -3.16553290805E-01 -9.29582045670E-02 -4.03192082788E-01

   2   2   1   16 S     6.69702663304E-01  7.10589364220E-02  1.20070865306E+00

 NUMBER OF SYMMETRY OPERATORS         :    1
 *******************************************************************************
 * GEOMETRY EDITING - INPUT COORDINATES ARE GIVEN IN ANGSTROM          
 *******************************************************************************
 *******************************************************************************
 ATOMIC POSITIONS OPTIMIZATION CONTROL

 MAXIMUM GRADIENT COMPONENT   0.00045 MAXIMUM DISPLACEMENT COMPONENT     0.00030
 R.M.S. OF GRADIENT COMPONENT 0.00180 R.M.S. OF DISPLACEMENT COMPONENTS  0.00120
 THRESHOLD ON ENERGY CHANGE 0.100E-06 EXTRAPOLATING POLYNOMIAL ORDER           2
 MAXIMUM ALLOWED NUMBER OF STEPS  100 SORTING OF ENERGY POINTS:               NO
 ANALYTICAL  GRADIENT                 HESSIAN UPDATING                      BFGS
 STEP SIZE NUMERICAL GRADIENT 0.00100
 INITIAL HESSIAN MATRIX: SCHLEGEL MODEL 2
 *******************************************************************************


 GEOMETRY FOR WAVE FUNCTION - DIMENSIONALITY OF THE SYSTEM    0
 (NON PERIODIC DIRECTION: LATTICE PARAMETER FORMALLY SET TO 500)
 *******************************************************************************
 ATOMS IN THE ASYMMETRIC UNIT    2 - ATOMS IN THE UNIT CELL:    2
     ATOM          X(ANGSTROM)         Y(ANGSTROM)         Z(ANGSTROM)
 *******************************************************************************
   1 T  16 S    -3.165532908050E-01 -9.295820456700E-02 -4.031920827880E-01
   2 T  16 S     6.697026633040E-01  7.105893642200E-02  1.200708653058E+00

 T = ATOM BELONGING TO THE ASYMMETRIC UNIT

 ****   1 SYMMOPS - TRANSLATORS IN FRACTIONARY UNITS
  V INV                   ROTATION MATRICES                       TRANSLATOR
  1  1  1.00  0.00  0.00  0.00  1.00  0.00  0.00  0.00  1.00    0.00  0.00  0.00

 *******************************************************************************
 LOCAL ATOMIC FUNCTIONS BASIS SET
 *******************************************************************************
   ATOM  X(AU)  Y(AU)  Z(AU)    NO. TYPE  EXPONENT  S COEF   P COEF   D/F/G COEF
 *******************************************************************************
   1 S  -0.598 -0.176 -0.762
                                  1 S  
                                         2.192E+04 1.869E-03 0.000E+00 0.000E+00
                                         3.301E+03 1.423E-02 0.000E+00 0.000E+00
                                         7.541E+02 6.970E-02 0.000E+00 0.000E+00
                                         2.127E+02 2.385E-01 0.000E+00 0.000E+00
                                         6.799E+01 4.833E-01 0.000E+00 0.000E+00
                                         2.305E+01 3.381E-01 0.000E+00 0.000E+00
                             2-   5 SP 
                                         4.237E+02-2.377E-03 4.061E-03 0.000E+00
                                         1.007E+02-3.169E-02 3.068E-02 0.000E+00
                                         3.216E+01-1.133E-01 1.305E-01 0.000E+00
                                         1.181E+01 5.609E-02 3.272E-01 0.000E+00
                                         4.631E+00 5.923E-01 4.529E-01 0.000E+00
                                         1.870E+00 4.550E-01 2.560E-01 0.000E+00
                             6-   9 SP 
                                         2.616E+00-2.504E-01-1.451E-02 0.000E+00
                                         9.222E-01 6.696E-02 3.103E-01 0.000E+00
                                         3.413E-01 1.055E+00 7.545E-01 0.000E+00
                            10-  13 SP 
                                         1.172E-01 1.000E+00 1.000E+00 0.000E+00
                            14-  17 SP 
                                         9.935E-01 1.000E+00 1.000E+00 0.000E+00
                            18-  22 D  
                                         6.681E-01 0.000E+00 0.000E+00 6.500E-01
   2 S   1.266  0.134  2.269
 INFORMATION **** READM2 **** FULL DIRECT SCF (MONO AND BIEL INT) SELECTED
 *******************************************************************************
 N. OF ATOMS PER CELL        2  COULOMB OVERLAP TOL         (T1) 10** -6
 NUMBER OF SHELLS           12  COULOMB PENETRATION TOL     (T2) 10** -6
 NUMBER OF AO               44  EXCHANGE OVERLAP TOL        (T3) 10** 20
 N. OF ELECTRONS PER CELL   32  EXCHANGE PSEUDO OVP (F(G))  (T4) 10** 20
 CORE ELECTRONS PER CELL    20  EXCHANGE PSEUDO OVP (P(G))  (T5) 10** 20
 N. OF SYMMETRY OPERATORS    1  POLE ORDER IN MONO ZONE                4
 *******************************************************************************
 TYPE OF CALCULATION :  RESTRICTED CLOSED SHELL
 KOHN-SHAM HAMILTONIAN

 (EXCHANGE)[CORRELATION] FUNCTIONAL:(PERDEW-BURKE-ERNZERHOF)[PERDEW-BURKE-ERNZERHOF]

 EIGENVALUE LEVEL SHIFTING OF  1.600 HARTREE
 LOCKING - FERMI ENERGY ALTERED BY LEVEL SHIFTER
 *******************************************************************************
 MAX NUMBER OF SCF CYCLES      50  CONVERGENCE ON DELTAP        10**-16
 WEIGHT OF F(I) IN F(I+1)      90% CONVERGENCE ON ENERGY        10**- 7
 EIGENVALUE LEVEL SHIFTING OF  1.600 HARTREE
 LOCKING - FERMI ENERGY ALTERED BY LEVEL SHIFTER

 DISK SPACE FOR EIGENVECTORS (FTN 10)       1936 REALS

 SYMMETRY ADAPTION OF THE BLOCH FUNCTIONS DISABLED

 DIMENSIONS  P(G)=    1918 F(G)=     981 P(G),F(G) (IRR)    1049
 MAX G-VECTOR INDEX FOR 1- AND 2-ELECTRON INTEGRALS   1

 TTTTTTTTTTTTTTTTTTTTTTTTTTTTTT INPUT       TELAPSE        0.00 TCPU        0.00

 NEIGHBORS OF THE NON-EQUIVALENT ATOMS

 N = NUMBER OF NEIGHBORS AT DISTANCE R
    ATOM  N     R/ANG      R/AU   NEIGHBORS (ATOM LABELS AND CELL INDICES)
   1 S    1     1.8900     3.5716   2 S    0 0 0

   2 S    1     1.8900     3.5716   1 S    0 0 0


 SYMMETRY ALLOWED INTERNAL DEGREE(S) OF FREEDOM:   1
 TTTTTTTTTTTTTTTTTTTTTTTTTTTTTT SYMM        TELAPSE        0.00 TCPU        0.00
 *******************************************************************************
 COORDINATE OPTIMIZATION - POINT    1
 INFORMATION **** EXCBUF **** EXCH. BIPO BUFFER: WORDS USED =         0

 DFT PARAMETERS

     ATOM       ELECTRONS   NET CHARGE   R(ANGSTROM)
   1  16  S      16.0000      0.0000     1.04000000

 SIZE OF GRID=      71590
 TTTTTTTTTTTTTTTTTTTTTTTTTTTTTT MAKEGRID    TELAPSE        0.13 TCPU        0.05
 BECKE WEIGHT FUNCTION
 RADSAFE =     2.00
 TOLERANCES - DENSITY:10**- 6; POTENTIAL:10**- 9; GRID WGT:10**-14

 RADIAL INTEGRATION  - INTERVALS (POINTS,UPPER LIMIT):            1( 75,  4.0*R)

 ANGULAR INTEGRATION - INTERVALS (ACCURACY LEVEL [N. POINTS] UPPER LIMIT):
  1(  4[  86]   0.2)  2(  8[ 194]   0.5)  3( 12[ 350]   0.9)  4( 16[ 974]   3.5)
  5( 12[ 350]9999.0)

 *******************************************************************************
 S2 6-31GG*                                                                      
 CRYSTAL - SCF - TYPE OF CALCULATION :  RESTRICTED CLOSED SHELL
 *******************************************************************************
 TTTTTTTTTTTTTTTTTTTTTTTTTTTTTT SDIK        TELAPSE        0.13 TCPU        0.05

 AAAAAAAAAAAAAAAAAAAAAAAAAAAAAAAAAAAAAAAAAAAAAAAAAAAAAAAAAAAAAAAAAAAAAAAAAAAAAAA
         ATOMIC WAVEFUNCTION(S)


 NUCLEAR CHARGE 16.0  SYMMETRY SPECIES            S    P
 N. ELECTRONS   16.0  NUMBER OF PRIMITIVE GTOS   17   11
                      NUMBER OF CONTRACTED GTOS   5    4
                      NUMBER OF CLOSED SHELLS     3    1
                      OPEN SHELL OCCUPATION       0    4

  ZNUC SCFIT  TOTAL HF ENERGY   KINETIC ENERGY   VIRIAL THEOREM ACCURACY
  16.0  10   -3.974718757E+02  3.971265614E+02 -2.000869532E+00  3.9E-06

 AAAAAAAAAAAAAAAAAAAAAAAAAAAAAAAAAAAAAAAAAAAAAAAAAAAAAAAAAAAAAAAAAAAAAAAAAAAAAAA

 CHARGE NORMALIZATION FACTOR   1.00000000
 TOTAL ATOMIC CHARGES:
  16.0000000  16.0000000
 TTTTTTTTTTTTTTTTTTTTTTTTTTTTTT MOQGAD      TELAPSE        0.16 TCPU        0.06
 TTTTTTTTTTTTTTTTTTTTTTTTTTTTTT SHELLX      TELAPSE        0.34 TCPU        0.16
 TTTTTTTTTTTTTTTTTTTTTTTTTTTTTT MONMO3      TELAPSE        0.35 TCPU        0.16
 NUMERICALLY INTEGRATED DENSITY     31.9999614691
 TTTTTTTTTTTTTTTTTTTTTTTTTTTTTT NUMDFT      TELAPSE        2.68 TCPU        0.98
 CYC   0 ETOT(AU) -7.962124173627E+02 DETOT -7.96E+02 tst  0.00E+00 PX  1.00E+00
 TTTTTTTTTTTTTTTTTTTTTTTTTTTTTT FDIK        TELAPSE        2.68 TCPU        0.99
 INSULATING STATE - TOP OF VALENCE BANDS (A.U.) -2.0674464E-01
 TTTTTTTTTTTTTTTTTTTTTTTTTTTTTT PDIG        TELAPSE        2.68 TCPU        0.99
 CHARGE NORMALIZATION FACTOR   1.00000000
 TOTAL ATOMIC CHARGES:
  16.0000000  16.0000000
 TTTTTTTTTTTTTTTTTTTTTTTTTTTTTT MOQGAD      TELAPSE        2.69 TCPU        0.99
 TTTTTTTTTTTTTTTTTTTTTTTTTTTTTT SHELLX      TELAPSE        2.94 TCPU        1.13
 TTTTTTTTTTTTTTTTTTTTTTTTTTTTTT MONMO3      TELAPSE        2.94 TCPU        1.13
 NUMERICALLY INTEGRATED DENSITY     31.9999638401
 TTTTTTTTTTTTTTTTTTTTTTTTTTTTTT NUMDFT      TELAPSE        5.52 TCPU        2.35
 CYC   1 ETOT(AU) -7.959557432570E+02 DETOT  2.57E-01 tst  0.00E+00 PX  1.00E+00
 TTTTTTTTTTTTTTTTTTTTTTTTTTTTTT FDIK        TELAPSE        5.52 TCPU        2.35
 INSULATING STATE - TOP OF VALENCE BANDS (A.U.) -1.8028376E+00
 TTTTTTTTTTTTTTTTTTTTTTTTTTTTTT PDIG        TELAPSE        5.52 TCPU        2.35
 CHARGE NORMALIZATION FACTOR   1.00000000
 TOTAL ATOMIC CHARGES:
  16.0000000  16.0000000
 TTTTTTTTTTTTTTTTTTTTTTTTTTTTTT MOQGAD      TELAPSE        5.54 TCPU        2.36
 TTTTTTTTTTTTTTTTTTTTTTTTTTTTTT SHELLX      TELAPSE        5.78 TCPU        2.47
 TTTTTTTTTTTTTTTTTTTTTTTTTTTTTT MONMO3      TELAPSE        5.79 TCPU        2.48
 NUMERICALLY INTEGRATED DENSITY     31.9999637209
 TTTTTTTTTTTTTTTTTTTTTTTTTTTTTT NUMDFT      TELAPSE        8.40 TCPU        3.75
 CYC   2 ETOT(AU) -7.959559866421E+02 DETOT -2.43E-04 tst  3.40E-06 PX  1.37E-03
 TTTTTTTTTTTTTTTTTTTTTTTTTTTTTT FDIK        TELAPSE        8.40 TCPU        3.75
 INSULATING STATE - TOP OF VALENCE BANDS (A.U.) -1.7993796E+00
 TTTTTTTTTTTTTTTTTTTTTTTTTTTTTT PDIG        TELAPSE        8.40 TCPU        3.75
 CHARGE NORMALIZATION FACTOR   1.00000000
 TOTAL ATOMIC CHARGES:
  16.0000000  16.0000000
 TTTTTTTTTTTTTTTTTTTTTTTTTTTTTT MOQGAD      TELAPSE        8.42 TCPU        3.76
 TTTTTTTTTTTTTTTTTTTTTTTTTTTTTT SHELLX      TELAPSE        8.66 TCPU        3.88
 TTTTTTTTTTTTTTTTTTTTTTTTTTTTTT MONMO3      TELAPSE        8.66 TCPU        3.88
 NUMERICALLY INTEGRATED DENSITY     31.9999635245
 TTTTTTTTTTTTTTTTTTTTTTTTTTTTTT NUMDFT      TELAPSE       11.26 TCPU        5.09
 CYC   3 ETOT(AU) -7.959563198752E+02 DETOT -3.33E-04 tst  9.14E-06 PX  2.19E-03
 TTTTTTTTTTTTTTTTTTTTTTTTTTTTTT FDIK        TELAPSE       11.26 TCPU        5.09
 INSULATING STATE - TOP OF VALENCE BANDS (A.U.) -1.7963585E+00
 TTTTTTTTTTTTTTTTTTTTTTTTTTTTTT PDIG        TELAPSE       11.26 TCPU        5.09
 CHARGE NORMALIZATION FACTOR   1.00000000
 TOTAL ATOMIC CHARGES:
  16.0000000  16.0000000
 TTTTTTTTTTTTTTTTTTTTTTTTTTTTTT MOQGAD      TELAPSE       11.27 TCPU        5.10
 TTTTTTTTTTTTTTTTTTTTTTTTTTTTTT SHELLX      TELAPSE       11.52 TCPU        5.21
 TTTTTTTTTTTTTTTTTTTTTTTTTTTTTT MONMO3      TELAPSE       11.52 TCPU        5.22
 NUMERICALLY INTEGRATED DENSITY     31.9999632834
 TTTTTTTTTTTTTTTTTTTTTTTTTTTTTT NUMDFT      TELAPSE       14.20 TCPU        6.45
 CYC   4 ETOT(AU) -7.959566627297E+02 DETOT -3.43E-04 tst  1.37E-05 PX  2.56E-03
 TTTTTTTTTTTTTTTTTTTTTTTTTTTTTT FDIK        TELAPSE       14.20 TCPU        6.45
 INSULATING STATE - TOP OF VALENCE BANDS (A.U.) -1.7937461E+00
 TTTTTTTTTTTTTTTTTTTTTTTTTTTTTT PDIG        TELAPSE       14.21 TCPU        6.45
 CHARGE NORMALIZATION FACTOR   1.00000000
 TOTAL ATOMIC CHARGES:
  16.0000000  16.0000000
 TTTTTTTTTTTTTTTTTTTTTTTTTTTTTT MOQGAD      TELAPSE       14.21 TCPU        6.45
 TTTTTTTTTTTTTTTTTTTTTTTTTTTTTT SHELLX      TELAPSE       14.46 TCPU        6.58
 TTTTTTTTTTTTTTTTTTTTTTTTTTTTTT MONMO3      TELAPSE       14.47 TCPU        6.58
 NUMERICALLY INTEGRATED DENSITY     31.9999630220
 TTTTTTTTTTTTTTTTTTTTTTTTTTTTTT NUMDFT      TELAPSE       17.07 TCPU        7.80
 CYC   5 ETOT(AU) -7.959569761335E+02 DETOT -3.13E-04 tst  1.62E-05 PX  2.73E-03
 TTTTTTTTTTTTTTTTTTTTTTTTTTTTTT FDIK        TELAPSE       17.07 TCPU        7.80
 INSULATING STATE - TOP OF VALENCE BANDS (A.U.) -1.7915057E+00
 TTTTTTTTTTTTTTTTTTTTTTTTTTTTTT PDIG        TELAPSE       17.07 TCPU        7.80
 CHARGE NORMALIZATION FACTOR   1.00000000
 TOTAL ATOMIC CHARGES:
  16.0000000  16.0000000
 TTTTTTTTTTTTTTTTTTTTTTTTTTTTTT MOQGAD      TELAPSE       17.09 TCPU        7.80
 TTTTTTTTTTTTTTTTTTTTTTTTTTTTTT SHELLX      TELAPSE       17.33 TCPU        7.92
 TTTTTTTTTTTTTTTTTTTTTTTTTTTTTT MONMO3      TELAPSE       17.34 TCPU        7.92
 NUMERICALLY INTEGRATED DENSITY     31.9999627575
 TTTTTTTTTTTTTTTTTTTTTTTTTTTTTT NUMDFT      TELAPSE       19.96 TCPU        9.13
 CYC   6 ETOT(AU) -7.959572447496E+02 DETOT -2.69E-04 tst  1.67E-05 PX  2.80E-03
 TTTTTTTTTTTTTTTTTTTTTTTTTTTTTT FDIK        TELAPSE       19.96 TCPU        9.13
 INSULATING STATE - TOP OF VALENCE BANDS (A.U.) -1.7895970E+00
 TTTTTTTTTTTTTTTTTTTTTTTTTTTTTT PDIG        TELAPSE       19.96 TCPU        9.13
 CHARGE NORMALIZATION FACTOR   1.00000000
 TOTAL ATOMIC CHARGES:
  16.0000000  16.0000000
 TTTTTTTTTTTTTTTTTTTTTTTTTTTTTT MOQGAD      TELAPSE       19.98 TCPU        9.13
 TTTTTTTTTTTTTTTTTTTTTTTTTTTTTT SHELLX      TELAPSE       20.22 TCPU        9.24
 TTTTTTTTTTTTTTTTTTTTTTTTTTTTTT MONMO3      TELAPSE       20.22 TCPU        9.25
 NUMERICALLY INTEGRATED DENSITY     31.9999625015
 TTTTTTTTTTTTTTTTTTTTTTTTTTTTTT NUMDFT      TELAPSE       22.86 TCPU       10.52
 CYC   7 ETOT(AU) -7.959574653738E+02 DETOT -2.21E-04 tst  1.58E-05 PX  2.74E-03
 TTTTTTTTTTTTTTTTTTTTTTTTTTTTTT FDIK        TELAPSE       22.86 TCPU       10.52
 INSULATING STATE - TOP OF VALENCE BANDS (A.U.) -1.7879798E+00
 TTTTTTTTTTTTTTTTTTTTTTTTTTTTTT PDIG        TELAPSE       22.86 TCPU       10.52
 CHARGE NORMALIZATION FACTOR   1.00000000
 TOTAL ATOMIC CHARGES:
  16.0000000  16.0000000
 TTTTTTTTTTTTTTTTTTTTTTTTTTTTTT MOQGAD      TELAPSE       22.87 TCPU       10.53
 TTTTTTTTTTTTTTTTTTTTTTTTTTTTTT SHELLX      TELAPSE       23.12 TCPU       10.64
 TTTTTTTTTTTTTTTTTTTTTTTTTTTTTT MONMO3      TELAPSE       23.12 TCPU       10.64
 NUMERICALLY INTEGRATED DENSITY     31.9999622620
 TTTTTTTTTTTTTTTTTTTTTTTTTTTTTT NUMDFT      TELAPSE       25.66 TCPU       11.89
 CYC   8 ETOT(AU) -7.959576417182E+02 DETOT -1.76E-04 tst  1.40E-05 PX  2.58E-03
 TTTTTTTTTTTTTTTTTTTTTTTTTTTTTT FDIK        TELAPSE       25.66 TCPU       11.89
 INSULATING STATE - TOP OF VALENCE BANDS (A.U.) -1.7866155E+00
 TTTTTTTTTTTTTTTTTTTTTTTTTTTTTT PDIG        TELAPSE       25.66 TCPU       11.89
 CHARGE NORMALIZATION FACTOR   1.00000000
 TOTAL ATOMIC CHARGES:
  16.0000000  16.0000000
 TTTTTTTTTTTTTTTTTTTTTTTTTTTTTT MOQGAD      TELAPSE       25.67 TCPU       11.90
 TTTTTTTTTTTTTTTTTTTTTTTTTTTTTT SHELLX      TELAPSE       25.90 TCPU       12.01
 TTTTTTTTTTTTTTTTTTTTTTTTTTTTTT MONMO3      TELAPSE       25.91 TCPU       12.02
 NUMERICALLY INTEGRATED DENSITY     31.9999620431
 TTTTTTTTTTTTTTTTTTTTTTTTTTTTTT NUMDFT      TELAPSE       28.48 TCPU       13.26
 CYC   9 ETOT(AU) -7.959577800794E+02 DETOT -1.38E-04 tst  1.19E-05 PX  2.37E-03
 TTTTTTTTTTTTTTTTTTTTTTTTTTTTTT FDIK        TELAPSE       28.48 TCPU       13.26
 INSULATING STATE - TOP OF VALENCE BANDS (A.U.) -1.7854687E+00
 TTTTTTTTTTTTTTTTTTTTTTTTTTTTTT PDIG        TELAPSE       28.48 TCPU       13.26
 CHARGE NORMALIZATION FACTOR   1.00000000
 TOTAL ATOMIC CHARGES:
  16.0000000  16.0000000
 TTTTTTTTTTTTTTTTTTTTTTTTTTTTTT MOQGAD      TELAPSE       28.49 TCPU       13.27
 TTTTTTTTTTTTTTTTTTTTTTTTTTTTTT SHELLX      TELAPSE       28.72 TCPU       13.37
 TTTTTTTTTTTTTTTTTTTTTTTTTTTTTT MONMO3      TELAPSE       28.73 TCPU       13.38
 NUMERICALLY INTEGRATED DENSITY     31.9999618467
 TTTTTTTTTTTTTTTTTTTTTTTTTTTTTT NUMDFT      TELAPSE       31.30 TCPU       14.63
 CYC  10 ETOT(AU) -7.959578872026E+02 DETOT -1.07E-04 tst  9.80E-06 PX  2.14E-03
 TTTTTTTTTTTTTTTTTTTTTTTTTTTTTT FDIK        TELAPSE       31.32 TCPU       14.63
 INSULATING STATE - TOP OF VALENCE BANDS (A.U.) -1.7845072E+00
 TTTTTTTTTTTTTTTTTTTTTTTTTTTTTT PDIG        TELAPSE       31.32 TCPU       14.63
 CHARGE NORMALIZATION FACTOR   1.00000000
 TOTAL ATOMIC CHARGES:
  16.0000000  16.0000000
 TTTTTTTTTTTTTTTTTTTTTTTTTTTTTT MOQGAD      TELAPSE       31.34 TCPU       14.64
 TTTTTTTTTTTTTTTTTTTTTTTTTTTTTT SHELLX      TELAPSE       31.58 TCPU       14.76
 TTTTTTTTTTTTTTTTTTTTTTTTTTTTTT MONMO3      TELAPSE       31.59 TCPU       14.76
 NUMERICALLY INTEGRATED DENSITY     31.9999616735
 TTTTTTTTTTTTTTTTTTTTTTTTTTTTTT NUMDFT      TELAPSE       34.68 TCPU       16.08
 CYC  11 ETOT(AU) -7.959579694899E+02 DETOT -8.23E-05 tst  7.83E-06 PX  1.90E-03
 TTTTTTTTTTTTTTTTTTTTTTTTTTTTTT FDIK        TELAPSE       34.68 TCPU       16.08
 INSULATING STATE - TOP OF VALENCE BANDS (A.U.) -1.7837026E+00
 TTTTTTTTTTTTTTTTTTTTTTTTTTTTTT PDIG        TELAPSE       34.68 TCPU       16.08
 CHARGE NORMALIZATION FACTOR   1.00000000
 TOTAL ATOMIC CHARGES:
  16.0000000  16.0000000
 TTTTTTTTTTTTTTTTTTTTTTTTTTTTTT MOQGAD      TELAPSE       34.72 TCPU       16.09
 TTTTTTTTTTTTTTTTTTTTTTTTTTTTTT SHELLX      TELAPSE       35.02 TCPU       16.21
 TTTTTTTTTTTTTTTTTTTTTTTTTTTTTT MONMO3      TELAPSE       35.02 TCPU       16.21
 NUMERICALLY INTEGRATED DENSITY     31.9999615226
 TTTTTTTTTTTTTTTTTTTTTTTTTTTTTT NUMDFT      TELAPSE       38.90 TCPU       17.48
 CYC  12 ETOT(AU) -7.959580324293E+02 DETOT -6.29E-05 tst  6.11E-06 PX  1.67E-03
 TTTTTTTTTTTTTTTTTTTTTTTTTTTTTT FDIK        TELAPSE       38.90 TCPU       17.48
 INSULATING STATE - TOP OF VALENCE BANDS (A.U.) -1.7830298E+00
 TTTTTTTTTTTTTTTTTTTTTTTTTTTTTT PDIG        TELAPSE       38.91 TCPU       17.48
 CHARGE NORMALIZATION FACTOR   1.00000000
 TOTAL ATOMIC CHARGES:
  16.0000000  16.0000000
 TTTTTTTTTTTTTTTTTTTTTTTTTTTTTT MOQGAD      TELAPSE       38.92 TCPU       17.49
 TTTTTTTTTTTTTTTTTTTTTTTTTTTTTT SHELLX      TELAPSE       39.27 TCPU       17.61
 TTTTTTTTTTTTTTTTTTTTTTTTTTTTTT MONMO3      TELAPSE       39.28 TCPU       17.61
 NUMERICALLY INTEGRATED DENSITY     31.9999613927
 TTTTTTTTTTTTTTTTTTTTTTTTTTTTTT NUMDFT      TELAPSE       42.55 TCPU       18.87
 CYC  13 ETOT(AU) -7.959580804676E+02 DETOT -4.80E-05 tst  4.68E-06 PX  1.45E-03
 TTTTTTTTTTTTTTTTTTTTTTTTTTTTTT FDIK        TELAPSE       42.56 TCPU       18.88
 INSULATING STATE - TOP OF VALENCE BANDS (A.U.) -1.7824676E+00
 TTTTTTTTTTTTTTTTTTTTTTTTTTTTTT PDIG        TELAPSE       42.56 TCPU       18.88
 CHARGE NORMALIZATION FACTOR   1.00000000
 TOTAL ATOMIC CHARGES:
  16.0000000  16.0000000
 TTTTTTTTTTTTTTTTTTTTTTTTTTTTTT MOQGAD      TELAPSE       42.57 TCPU       18.88
 TTTTTTTTTTTTTTTTTTTTTTTTTTTTTT SHELLX      TELAPSE       42.81 TCPU       18.99
 TTTTTTTTTTTTTTTTTTTTTTTTTTTTTT MONMO3      TELAPSE       42.82 TCPU       18.99
 NUMERICALLY INTEGRATED DENSITY     31.9999612819
 TTTTTTTTTTTTTTTTTTTTTTTTTTTTTT NUMDFT      TELAPSE       45.60 TCPU       20.35
 CYC  14 ETOT(AU) -7.959581171538E+02 DETOT -3.67E-05 tst  3.53E-06 PX  1.25E-03
 TTTTTTTTTTTTTTTTTTTTTTTTTTTTTT FDIK        TELAPSE       45.60 TCPU       20.35
 INSULATING STATE - TOP OF VALENCE BANDS (A.U.) -1.7819975E+00
 TTTTTTTTTTTTTTTTTTTTTTTTTTTTTT PDIG        TELAPSE       45.61 TCPU       20.35
 CHARGE NORMALIZATION FACTOR   1.00000000
 TOTAL ATOMIC CHARGES:
  16.0000000  16.0000000
 TTTTTTTTTTTTTTTTTTTTTTTTTTTTTT MOQGAD      TELAPSE       45.62 TCPU       20.36
 TTTTTTTTTTTTTTTTTTTTTTTTTTTTTT SHELLX      TELAPSE       45.95 TCPU       20.47
 TTTTTTTTTTTTTTTTTTTTTTTTTTTTTT MONMO3      TELAPSE       45.95 TCPU       20.47
 NUMERICALLY INTEGRATED DENSITY     31.9999611880
 TTTTTTTTTTTTTTTTTTTTTTTTTTTTTT NUMDFT      TELAPSE       48.50 TCPU       21.60
 CYC  15 ETOT(AU) -7.959581452298E+02 DETOT -2.81E-05 tst  2.64E-06 PX  1.06E-03
 TTTTTTTTTTTTTTTTTTTTTTTTTTTTTT FDIK        TELAPSE       48.50 TCPU       21.60
 INSULATING STATE - TOP OF VALENCE BANDS (A.U.) -1.7816039E+00
 TTTTTTTTTTTTTTTTTTTTTTTTTTTTTT PDIG        TELAPSE       48.50 TCPU       21.60
 CHARGE NORMALIZATION FACTOR   1.00000000
 TOTAL ATOMIC CHARGES:
  16.0000000  16.0000000
 TTTTTTTTTTTTTTTTTTTTTTTTTTTTTT MOQGAD      TELAPSE       48.52 TCPU       21.61
 TTTTTTTTTTTTTTTTTTTTTTTTTTTTTT SHELLX      TELAPSE       48.77 TCPU       21.72
 TTTTTTTTTTTTTTTTTTTTTTTTTTTTTT MONMO3      TELAPSE       48.77 TCPU       21.72
 NUMERICALLY INTEGRATED DENSITY     31.9999611092
 TTTTTTTTTTTTTTTTTTTTTTTTTTTTTT NUMDFT      TELAPSE       51.33 TCPU       22.91
 CYC  16 ETOT(AU) -7.959581667625E+02 DETOT -2.15E-05 tst  1.95E-06 PX  9.02E-04
 TTTTTTTTTTTTTTTTTTTTTTTTTTTTTT FDIK        TELAPSE       51.33 TCPU       22.91
 INSULATING STATE - TOP OF VALENCE BANDS (A.U.) -1.7812740E+00
 TTTTTTTTTTTTTTTTTTTTTTTTTTTTTT PDIG        TELAPSE       51.33 TCPU       22.91
 CHARGE NORMALIZATION FACTOR   1.00000000
 TOTAL ATOMIC CHARGES:
  16.0000000  16.0000000
 TTTTTTTTTTTTTTTTTTTTTTTTTTTTTT MOQGAD      TELAPSE       51.34 TCPU       22.92
 TTTTTTTTTTTTTTTTTTTTTTTTTTTTTT SHELLX      TELAPSE       51.58 TCPU       23.01
 TTTTTTTTTTTTTTTTTTTTTTTTTTTTTT MONMO3      TELAPSE       51.58 TCPU       23.02
 NUMERICALLY INTEGRATED DENSITY     31.9999610433
 TTTTTTTTTTTTTTTTTTTTTTTTTTTTTT NUMDFT      TELAPSE       54.13 TCPU       24.23
 CYC  17 ETOT(AU) -7.959581833345E+02 DETOT -1.66E-05 tst  1.43E-06 PX  7.63E-04
 TTTTTTTTTTTTTTTTTTTTTTTTTTTTTT FDIK        TELAPSE       54.13 TCPU       24.23
 INSULATING STATE - TOP OF VALENCE BANDS (A.U.) -1.7809967E+00
 TTTTTTTTTTTTTTTTTTTTTTTTTTTTTT PDIG        TELAPSE       54.13 TCPU       24.23
 CHARGE NORMALIZATION FACTOR   1.00000000
 TOTAL ATOMIC CHARGES:
  16.0000000  16.0000000
 TTTTTTTTTTTTTTTTTTTTTTTTTTTTTT MOQGAD      TELAPSE       54.14 TCPU       24.24
 TTTTTTTTTTTTTTTTTTTTTTTTTTTTTT SHELLX      TELAPSE       54.39 TCPU       24.35
 TTTTTTTTTTTTTTTTTTTTTTTTTTTTTT MONMO3      TELAPSE       54.39 TCPU       24.35
 NUMERICALLY INTEGRATED DENSITY     31.9999609884
 TTTTTTTTTTTTTTTTTTTTTTTTTTTTTT NUMDFT      TELAPSE       56.93 TCPU       25.57
 CYC  18 ETOT(AU) -7.959581961405E+02 DETOT -1.28E-05 tst  1.04E-06 PX  6.40E-04
 TTTTTTTTTTTTTTTTTTTTTTTTTTTTTT FDIK        TELAPSE       56.93 TCPU       25.57
 INSULATING STATE - TOP OF VALENCE BANDS (A.U.) -1.7807630E+00
 TTTTTTTTTTTTTTTTTTTTTTTTTTTTTT PDIG        TELAPSE       56.93 TCPU       25.57
 CHARGE NORMALIZATION FACTOR   1.00000000
 TOTAL ATOMIC CHARGES:
  16.0000000  16.0000000
 TTTTTTTTTTTTTTTTTTTTTTTTTTTTTT MOQGAD      TELAPSE       56.95 TCPU       25.58
 TTTTTTTTTTTTTTTTTTTTTTTTTTTTTT SHELLX      TELAPSE       57.18 TCPU       25.68
 TTTTTTTTTTTTTTTTTTTTTTTTTTTTTT MONMO3      TELAPSE       57.19 TCPU       25.69
 NUMERICALLY INTEGRATED DENSITY     31.9999609429
 TTTTTTTTTTTTTTTTTTTTTTTTTTTTTT NUMDFT      TELAPSE       59.75 TCPU       26.92
 CYC  19 ETOT(AU) -7.959582060545E+02 DETOT -9.91E-06 tst  7.61E-07 PX  5.37E-04
 TTTTTTTTTTTTTTTTTTTTTTTTTTTTTT FDIK        TELAPSE       59.75 TCPU       26.92
 INSULATING STATE - TOP OF VALENCE BANDS (A.U.) -1.7805655E+00
 TTTTTTTTTTTTTTTTTTTTTTTTTTTTTT PDIG        TELAPSE       59.75 TCPU       26.92
 CHARGE NORMALIZATION FACTOR   1.00000000
 TOTAL ATOMIC CHARGES:
  16.0000000  16.0000000
 TTTTTTTTTTTTTTTTTTTTTTTTTTTTTT MOQGAD      TELAPSE       59.77 TCPU       26.93
 TTTTTTTTTTTTTTTTTTTTTTTTTTTTTT SHELLX      TELAPSE       60.00 TCPU       27.04
 TTTTTTTTTTTTTTTTTTTTTTTTTTTTTT MONMO3      TELAPSE       60.01 TCPU       27.04
 NUMERICALLY INTEGRATED DENSITY     31.9999609053
 TTTTTTTTTTTTTTTTTTTTTTTTTTTTTT NUMDFT      TELAPSE       62.55 TCPU       28.25
 CYC  20 ETOT(AU) -7.959582137603E+02 DETOT -7.71E-06 tst  5.54E-07 PX  4.51E-04
 TTTTTTTTTTTTTTTTTTTTTTTTTTTTTT FDIK        TELAPSE       62.55 TCPU       28.25
 INSULATING STATE - TOP OF VALENCE BANDS (A.U.) -1.7803980E+00
 TTTTTTTTTTTTTTTTTTTTTTTTTTTTTT PDIG        TELAPSE       62.55 TCPU       28.25
 CHARGE NORMALIZATION FACTOR   1.00000000
 TOTAL ATOMIC CHARGES:
  16.0000000  16.0000000
 TTTTTTTTTTTTTTTTTTTTTTTTTTTTTT MOQGAD      TELAPSE       62.56 TCPU       28.26
 TTTTTTTTTTTTTTTTTTTTTTTTTTTTTT SHELLX      TELAPSE       62.80 TCPU       28.37
 TTTTTTTTTTTTTTTTTTTTTTTTTTTTTT MONMO3      TELAPSE       62.80 TCPU       28.37
 NUMERICALLY INTEGRATED DENSITY     31.9999608743
 TTTTTTTTTTTTTTTTTTTTTTTTTTTTTT NUMDFT      TELAPSE       65.35 TCPU       29.57
 CYC  21 ETOT(AU) -7.959582197598E+02 DETOT -6.00E-06 tst  4.03E-07 PX  3.94E-04
 TTTTTTTTTTTTTTTTTTTTTTTTTTTTTT FDIK        TELAPSE       65.35 TCPU       29.57
 INSULATING STATE - TOP OF VALENCE BANDS (A.U.) -1.7802553E+00
 TTTTTTTTTTTTTTTTTTTTTTTTTTTTTT PDIG        TELAPSE       65.35 TCPU       29.57
 CHARGE NORMALIZATION FACTOR   1.00000000
 TOTAL ATOMIC CHARGES:
  16.0000000  16.0000000
 TTTTTTTTTTTTTTTTTTTTTTTTTTTTTT MOQGAD      TELAPSE       65.37 TCPU       29.58
 TTTTTTTTTTTTTTTTTTTTTTTTTTTTTT SHELLX      TELAPSE       65.60 TCPU       29.68
 TTTTTTTTTTTTTTTTTTTTTTTTTTTTTT MONMO3      TELAPSE       65.61 TCPU       29.69
 NUMERICALLY INTEGRATED DENSITY     31.9999608486
 TTTTTTTTTTTTTTTTTTTTTTTTTTTTTT NUMDFT      TELAPSE       68.14 TCPU       30.87
 CYC  22 ETOT(AU) -7.959582244428E+02 DETOT -4.68E-06 tst  2.94E-07 PX  3.44E-04
 TTTTTTTTTTTTTTTTTTTTTTTTTTTTTT FDIK        TELAPSE       68.14 TCPU       30.87
 INSULATING STATE - TOP OF VALENCE BANDS (A.U.) -1.7801335E+00
 TTTTTTTTTTTTTTTTTTTTTTTTTTTTTT PDIG        TELAPSE       68.14 TCPU       30.87
 CHARGE NORMALIZATION FACTOR   1.00000000
 TOTAL ATOMIC CHARGES:
  16.0000000  16.0000000
 TTTTTTTTTTTTTTTTTTTTTTTTTTTTTT MOQGAD      TELAPSE       68.16 TCPU       30.87
 TTTTTTTTTTTTTTTTTTTTTTTTTTTTTT SHELLX      TELAPSE       68.39 TCPU       31.00
 TTTTTTTTTTTTTTTTTTTTTTTTTTTTTT MONMO3      TELAPSE       68.39 TCPU       31.00
 NUMERICALLY INTEGRATED DENSITY     31.9999608275
 TTTTTTTTTTTTTTTTTTTTTTTTTTTTTT NUMDFT      TELAPSE       71.05 TCPU       32.23
 CYC  23 ETOT(AU) -7.959582281022E+02 DETOT -3.66E-06 tst  2.15E-07 PX  3.01E-04
 TTTTTTTTTTTTTTTTTTTTTTTTTTTTTT FDIK        TELAPSE       71.05 TCPU       32.23
 INSULATING STATE - TOP OF VALENCE BANDS (A.U.) -1.7800291E+00
 TTTTTTTTTTTTTTTTTTTTTTTTTTTTTT PDIG        TELAPSE       71.05 TCPU       32.23
 CHARGE NORMALIZATION FACTOR   1.00000000
 TOTAL ATOMIC CHARGES:
  16.0000000  16.0000000
 TTTTTTTTTTTTTTTTTTTTTTTTTTTTTT MOQGAD      TELAPSE       71.06 TCPU       32.24
 TTTTTTTTTTTTTTTTTTTTTTTTTTTTTT SHELLX      TELAPSE       71.30 TCPU       32.37
 TTTTTTTTTTTTTTTTTTTTTTTTTTTTTT MONMO3      TELAPSE       71.30 TCPU       32.37
 NUMERICALLY INTEGRATED DENSITY     31.9999608100
 TTTTTTTTTTTTTTTTTTTTTTTTTTTTTT NUMDFT      TELAPSE       74.64 TCPU       33.73
 CYC  24 ETOT(AU) -7.959582309674E+02 DETOT -2.87E-06 tst  1.58E-07 PX  2.63E-04
 TTTTTTTTTTTTTTTTTTTTTTTTTTTTTT FDIK        TELAPSE       74.64 TCPU       33.73
 INSULATING STATE - TOP OF VALENCE BANDS (A.U.) -1.7799392E+00
 TTTTTTTTTTTTTTTTTTTTTTTTTTTTTT PDIG        TELAPSE       74.64 TCPU       33.73
 CHARGE NORMALIZATION FACTOR   1.00000000
 TOTAL ATOMIC CHARGES:
  16.0000000  16.0000000
 TTTTTTTTTTTTTTTTTTTTTTTTTTTTTT MOQGAD      TELAPSE       74.66 TCPU       33.73
 TTTTTTTTTTTTTTTTTTTTTTTTTTTTTT SHELLX      TELAPSE       74.89 TCPU       33.85
 TTTTTTTTTTTTTTTTTTTTTTTTTTTTTT MONMO3      TELAPSE       74.89 TCPU       33.86
 NUMERICALLY INTEGRATED DENSITY     31.9999607954
 TTTTTTTTTTTTTTTTTTTTTTTTTTTTTT NUMDFT      TELAPSE       77.62 TCPU       35.15
 CYC  25 ETOT(AU) -7.959582332120E+02 DETOT -2.24E-06 tst  1.17E-07 PX  2.31E-04
 TTTTTTTTTTTTTTTTTTTTTTTTTTTTTT FDIK        TELAPSE       77.62 TCPU       35.15
 INSULATING STATE - TOP OF VALENCE BANDS (A.U.) -1.7798617E+00
 TTTTTTTTTTTTTTTTTTTTTTTTTTTTTT PDIG        TELAPSE       77.62 TCPU       35.15
 CHARGE NORMALIZATION FACTOR   1.00000000
 TOTAL ATOMIC CHARGES:
  16.0000000  16.0000000
 TTTTTTTTTTTTTTTTTTTTTTTTTTTTTT MOQGAD      TELAPSE       77.64 TCPU       35.16
 TTTTTTTTTTTTTTTTTTTTTTTTTTTTTT SHELLX      TELAPSE       77.88 TCPU       35.28
 TTTTTTTTTTTTTTTTTTTTTTTTTTTTTT MONMO3      TELAPSE       77.88 TCPU       35.28
 NUMERICALLY INTEGRATED DENSITY     31.9999607834
 TTTTTTTTTTTTTTTTTTTTTTTTTTTTTT NUMDFT      TELAPSE       80.71 TCPU       36.61
 CYC  26 ETOT(AU) -7.959582349731E+02 DETOT -1.76E-06 tst  9.21E-08 PX  2.03E-04
 TTTTTTTTTTTTTTTTTTTTTTTTTTTTTT FDIK        TELAPSE       80.71 TCPU       36.61
 INSULATING STATE - TOP OF VALENCE BANDS (A.U.) -1.7797946E+00
 TTTTTTTTTTTTTTTTTTTTTTTTTTTTTT PDIG        TELAPSE       80.71 TCPU       36.61
 CHARGE NORMALIZATION FACTOR   1.00000000
 TOTAL ATOMIC CHARGES:
  16.0000000  16.0000000
 TTTTTTTTTTTTTTTTTTTTTTTTTTTTTT MOQGAD      TELAPSE       80.73 TCPU       36.62
 TTTTTTTTTTTTTTTTTTTTTTTTTTTTTT SHELLX      TELAPSE       80.98 TCPU       36.75
 TTTTTTTTTTTTTTTTTTTTTTTTTTTTTT MONMO3      TELAPSE       81.00 TCPU       36.75
 NUMERICALLY INTEGRATED DENSITY     31.9999607733
 TTTTTTTTTTTTTTTTTTTTTTTTTTTTTT NUMDFT      TELAPSE       83.78 TCPU       38.07
 CYC  27 ETOT(AU) -7.959582363552E+02 DETOT -1.38E-06 tst  7.27E-08 PX  1.78E-04
 TTTTTTTTTTTTTTTTTTTTTTTTTTTTTT FDIK        TELAPSE       83.79 TCPU       38.07
 INSULATING STATE - TOP OF VALENCE BANDS (A.U.) -1.7797364E+00
 TTTTTTTTTTTTTTTTTTTTTTTTTTTTTT PDIG        TELAPSE       83.79 TCPU       38.07
 CHARGE NORMALIZATION FACTOR   1.00000000
 TOTAL ATOMIC CHARGES:
  16.0000000  16.0000000
 TTTTTTTTTTTTTTTTTTTTTTTTTTTTTT MOQGAD      TELAPSE       83.81 TCPU       38.08
 TTTTTTTTTTTTTTTTTTTTTTTTTTTTTT SHELLX      TELAPSE       84.07 TCPU       38.20
 TTTTTTTTTTTTTTTTTTTTTTTTTTTTTT MONMO3      TELAPSE       84.07 TCPU       38.20
 NUMERICALLY INTEGRATED DENSITY     31.9999607648
 TTTTTTTTTTTTTTTTTTTTTTTTTTTTTT NUMDFT      TELAPSE       86.94 TCPU       39.57
 CYC  28 ETOT(AU) -7.959582374411E+02 DETOT -1.09E-06 tst  5.74E-08 PX  1.57E-04
 TTTTTTTTTTTTTTTTTTTTTTTTTTTTTT FDIK        TELAPSE       86.94 TCPU       39.57
 INSULATING STATE - TOP OF VALENCE BANDS (A.U.) -1.7796858E+00
 TTTTTTTTTTTTTTTTTTTTTTTTTTTTTT PDIG        TELAPSE       86.94 TCPU       39.57
 CHARGE NORMALIZATION FACTOR   1.00000000
 TOTAL ATOMIC CHARGES:
  16.0000000  16.0000000
 TTTTTTTTTTTTTTTTTTTTTTTTTTTTTT MOQGAD      TELAPSE       86.99 TCPU       39.58
 TTTTTTTTTTTTTTTTTTTTTTTTTTTTTT SHELLX      TELAPSE       87.32 TCPU       39.72
 TTTTTTTTTTTTTTTTTTTTTTTTTTTTTT MONMO3      TELAPSE       87.33 TCPU       39.72
 NUMERICALLY INTEGRATED DENSITY     31.9999607576
 TTTTTTTTTTTTTTTTTTTTTTTTTTTTTT NUMDFT      TELAPSE       90.07 TCPU       41.01
 CYC  29 ETOT(AU) -7.959582382947E+02 DETOT -8.54E-07 tst  4.54E-08 PX  1.38E-04
 TTTTTTTTTTTTTTTTTTTTTTTTTTTTTT FDIK        TELAPSE       90.07 TCPU       41.01
 INSULATING STATE - TOP OF VALENCE BANDS (A.U.) -1.7796417E+00
 TTTTTTTTTTTTTTTTTTTTTTTTTTTTTT PDIG        TELAPSE       90.07 TCPU       41.01
 CHARGE NORMALIZATION FACTOR   1.00000000
 TOTAL ATOMIC CHARGES:
  16.0000000  16.0000000
 TTTTTTTTTTTTTTTTTTTTTTTTTTTTTT MOQGAD      TELAPSE       90.09 TCPU       41.02
 TTTTTTTTTTTTTTTTTTTTTTTTTTTTTT SHELLX      TELAPSE       90.33 TCPU       41.13
 TTTTTTTTTTTTTTTTTTTTTTTTTTTTTT MONMO3      TELAPSE       90.33 TCPU       41.13
 NUMERICALLY INTEGRATED DENSITY     31.9999607515
 TTTTTTTTTTTTTTTTTTTTTTTTTTTTTT NUMDFT      TELAPSE       93.12 TCPU       42.35
 CYC  30 ETOT(AU) -7.959582389663E+02 DETOT -6.72E-07 tst  3.58E-08 PX  1.22E-04
 TTTTTTTTTTTTTTTTTTTTTTTTTTTTTT FDIK        TELAPSE       93.12 TCPU       42.35
 INSULATING STATE - TOP OF VALENCE BANDS (A.U.) -1.7796033E+00
 TTTTTTTTTTTTTTTTTTTTTTTTTTTTTT PDIG        TELAPSE       93.12 TCPU       42.35
 CHARGE NORMALIZATION FACTOR   1.00000000
 TOTAL ATOMIC CHARGES:
  16.0000000  16.0000000
 TTTTTTTTTTTTTTTTTTTTTTTTTTTTTT MOQGAD      TELAPSE       93.14 TCPU       42.36
 TTTTTTTTTTTTTTTTTTTTTTTTTTTTTT SHELLX      TELAPSE       93.41 TCPU       42.49
 TTTTTTTTTTTTTTTTTTTTTTTTTTTTTT MONMO3      TELAPSE       93.41 TCPU       42.49
 NUMERICALLY INTEGRATED DENSITY     31.9999607463
 TTTTTTTTTTTTTTTTTTTTTTTTTTTTTT NUMDFT      TELAPSE       96.73 TCPU       43.79
 CYC  31 ETOT(AU) -7.959582394948E+02 DETOT -5.28E-07 tst  2.83E-08 PX  1.08E-04
 TTTTTTTTTTTTTTTTTTTTTTTTTTTTTT FDIK        TELAPSE       96.73 TCPU       43.79
 INSULATING STATE - TOP OF VALENCE BANDS (A.U.) -1.7795698E+00
 TTTTTTTTTTTTTTTTTTTTTTTTTTTTTT PDIG        TELAPSE       96.73 TCPU       43.79
 CHARGE NORMALIZATION FACTOR   1.00000000
 TOTAL ATOMIC CHARGES:
  16.0000000  16.0000000
 TTTTTTTTTTTTTTTTTTTTTTTTTTTTTT MOQGAD      TELAPSE       96.73 TCPU       43.80
 TTTTTTTTTTTTTTTTTTTTTTTTTTTTTT SHELLX      TELAPSE       96.97 TCPU       43.91
 TTTTTTTTTTTTTTTTTTTTTTTTTTTTTT MONMO3      TELAPSE       96.97 TCPU       43.91
 NUMERICALLY INTEGRATED DENSITY     31.9999607419
 TTTTTTTTTTTTTTTTTTTTTTTTTTTTTT NUMDFT      TELAPSE       99.84 TCPU       45.26
 CYC  32 ETOT(AU) -7.959582399111E+02 DETOT -4.16E-07 tst  2.24E-08 PX  9.59E-05
 TTTTTTTTTTTTTTTTTTTTTTTTTTTTTT FDIK        TELAPSE       99.84 TCPU       45.26
 INSULATING STATE - TOP OF VALENCE BANDS (A.U.) -1.7795405E+00
 TTTTTTTTTTTTTTTTTTTTTTTTTTTTTT PDIG        TELAPSE       99.84 TCPU       45.26
 CHARGE NORMALIZATION FACTOR   1.00000000
 TOTAL ATOMIC CHARGES:
  16.0000000  16.0000000
 TTTTTTTTTTTTTTTTTTTTTTTTTTTTTT MOQGAD      TELAPSE       99.85 TCPU       45.27
 TTTTTTTTTTTTTTTTTTTTTTTTTTTTTT SHELLX      TELAPSE      100.10 TCPU       45.38
 TTTTTTTTTTTTTTTTTTTTTTTTTTTTTT MONMO3      TELAPSE      100.10 TCPU       45.38
 NUMERICALLY INTEGRATED DENSITY     31.9999607380
 TTTTTTTTTTTTTTTTTTTTTTTTTTTTTT NUMDFT      TELAPSE      102.68 TCPU       46.58
 CYC  33 ETOT(AU) -7.959582402391E+02 DETOT -3.28E-07 tst  1.77E-08 PX  8.52E-05
 TTTTTTTTTTTTTTTTTTTTTTTTTTTTTT FDIK        TELAPSE      102.68 TCPU       46.58
 INSULATING STATE - TOP OF VALENCE BANDS (A.U.) -1.7795148E+00
 TTTTTTTTTTTTTTTTTTTTTTTTTTTTTT PDIG        TELAPSE      102.68 TCPU       46.58
 CHARGE NORMALIZATION FACTOR   1.00000000
 TOTAL ATOMIC CHARGES:
  16.0000000  16.0000000
 TTTTTTTTTTTTTTTTTTTTTTTTTTTTTT MOQGAD      TELAPSE      102.70 TCPU       46.59
 TTTTTTTTTTTTTTTTTTTTTTTTTTTTTT SHELLX      TELAPSE      102.94 TCPU       46.70
 TTTTTTTTTTTTTTTTTTTTTTTTTTTTTT MONMO3      TELAPSE      102.94 TCPU       46.70
 NUMERICALLY INTEGRATED DENSITY     31.9999607347
 TTTTTTTTTTTTTTTTTTTTTTTTTTTTTT NUMDFT      TELAPSE      105.56 TCPU       47.95
 CYC  34 ETOT(AU) -7.959582404980E+02 DETOT -2.59E-07 tst  1.40E-08 PX  7.54E-05
 TTTTTTTTTTTTTTTTTTTTTTTTTTTTTT FDIK        TELAPSE      105.57 TCPU       47.96
 INSULATING STATE - TOP OF VALENCE BANDS (A.U.) -1.7794925E+00
 TTTTTTTTTTTTTTTTTTTTTTTTTTTTTT PDIG        TELAPSE      105.57 TCPU       47.96
 CHARGE NORMALIZATION FACTOR   1.00000000
 TOTAL ATOMIC CHARGES:
  16.0000000  16.0000000
 TTTTTTTTTTTTTTTTTTTTTTTTTTTTTT MOQGAD      TELAPSE      105.58 TCPU       47.96
 TTTTTTTTTTTTTTTTTTTTTTTTTTTTTT SHELLX      TELAPSE      105.82 TCPU       48.08
 TTTTTTTTTTTTTTTTTTTTTTTTTTTTTT MONMO3      TELAPSE      105.83 TCPU       48.08
 NUMERICALLY INTEGRATED DENSITY     31.9999607318
 TTTTTTTTTTTTTTTTTTTTTTTTTTTTTT NUMDFT      TELAPSE      108.44 TCPU       49.22
 CYC  35 ETOT(AU) -7.959582407021E+02 DETOT -2.04E-07 tst  1.10E-08 PX  6.72E-05
 TTTTTTTTTTTTTTTTTTTTTTTTTTTTTT FDIK        TELAPSE      108.44 TCPU       49.22
 INSULATING STATE - TOP OF VALENCE BANDS (A.U.) -1.7794729E+00
 TTTTTTTTTTTTTTTTTTTTTTTTTTTTTT PDIG        TELAPSE      108.44 TCPU       49.22
 CHARGE NORMALIZATION FACTOR   1.00000000
 TOTAL ATOMIC CHARGES:
  16.0000000  16.0000000
 TTTTTTTTTTTTTTTTTTTTTTTTTTTTTT MOQGAD      TELAPSE      108.45 TCPU       49.22
 TTTTTTTTTTTTTTTTTTTTTTTTTTTTTT SHELLX      TELAPSE      108.71 TCPU       49.35
 TTTTTTTTTTTTTTTTTTTTTTTTTTTTTT MONMO3      TELAPSE      108.71 TCPU       49.35
 NUMERICALLY INTEGRATED DENSITY     31.9999607292
 TTTTTTTTTTTTTTTTTTTTTTTTTTTTTT NUMDFT      TELAPSE      111.45 TCPU       50.51
 CYC  36 ETOT(AU) -7.959582408632E+02 DETOT -1.61E-07 tst  8.71E-09 PX  5.97E-05
 TTTTTTTTTTTTTTTTTTTTTTTTTTTTTT FDIK        TELAPSE      111.45 TCPU       50.51
 INSULATING STATE - TOP OF VALENCE BANDS (A.U.) -1.7794558E+00
 TTTTTTTTTTTTTTTTTTTTTTTTTTTTTT PDIG        TELAPSE      111.45 TCPU       50.51
 CHARGE NORMALIZATION FACTOR   1.00000000
 TOTAL ATOMIC CHARGES:
  16.0000000  16.0000000
 TTTTTTTTTTTTTTTTTTTTTTTTTTTTTT MOQGAD      TELAPSE      111.47 TCPU       50.52
 TTTTTTTTTTTTTTTTTTTTTTTTTTTTTT SHELLX      TELAPSE      111.71 TCPU       50.64
 TTTTTTTTTTTTTTTTTTTTTTTTTTTTTT MONMO3      TELAPSE      111.71 TCPU       50.64
 NUMERICALLY INTEGRATED DENSITY     31.9999607270
 TTTTTTTTTTTTTTTTTTTTTTTTTTTTTT NUMDFT      TELAPSE      114.46 TCPU       51.80
 CYC  37 ETOT(AU) -7.959582409904E+02 DETOT -1.27E-07 tst  6.88E-09 PX  5.31E-05
 TTTTTTTTTTTTTTTTTTTTTTTTTTTTTT FDIK        TELAPSE      114.46 TCPU       51.80
 INSULATING STATE - TOP OF VALENCE BANDS (A.U.) -1.7794408E+00
 TTTTTTTTTTTTTTTTTTTTTTTTTTTTTT PDIG        TELAPSE      114.46 TCPU       51.80
 CHARGE NORMALIZATION FACTOR   1.00000000
 TOTAL ATOMIC CHARGES:
  16.0000000  16.0000000
 TTTTTTTTTTTTTTTTTTTTTTTTTTTTTT MOQGAD      TELAPSE      114.48 TCPU       51.81
 TTTTTTTTTTTTTTTTTTTTTTTTTTTTTT SHELLX      TELAPSE      114.76 TCPU       51.93
 TTTTTTTTTTTTTTTTTTTTTTTTTTTTTT MONMO3      TELAPSE      114.76 TCPU       51.94
 NUMERICALLY INTEGRATED DENSITY     31.9999607250
 TTTTTTTTTTTTTTTTTTTTTTTTTTTTTT NUMDFT      TELAPSE      117.85 TCPU       53.29
 CYC  38 ETOT(AU) -7.959582410909E+02 DETOT -1.01E-07 tst  5.44E-09 PX  4.74E-05
 TTTTTTTTTTTTTTTTTTTTTTTTTTTTTT FDIK        TELAPSE      117.86 TCPU       53.30
 INSULATING STATE - TOP OF VALENCE BANDS (A.U.) -1.7794278E+00
 TTTTTTTTTTTTTTTTTTTTTTTTTTTTTT PDIG        TELAPSE      117.86 TCPU       53.30
 CHARGE NORMALIZATION FACTOR   1.00000000
 TOTAL ATOMIC CHARGES:
  16.0000000  16.0000000
 TTTTTTTTTTTTTTTTTTTTTTTTTTTTTT MOQGAD      TELAPSE      117.87 TCPU       53.30
 TTTTTTTTTTTTTTTTTTTTTTTTTTTTTT SHELLX      TELAPSE      118.10 TCPU       53.41
 TTTTTTTTTTTTTTTTTTTTTTTTTTTTTT MONMO3      TELAPSE      118.11 TCPU       53.41
 NUMERICALLY INTEGRATED DENSITY     31.9999607233
 TTTTTTTTTTTTTTTTTTTTTTTTTTTTTT NUMDFT      TELAPSE      121.14 TCPU       54.74
 CYC  39 ETOT(AU) -7.959582411703E+02 DETOT -7.94E-08 tst  4.29E-09 PX  4.22E-05
 TTTTTTTTTTTTTTTTTTTTTTTTTTTTTT FDIK        TELAPSE      121.14 TCPU       54.74
 INSULATING STATE - TOP OF VALENCE BANDS (A.U.) -1.7794164E+00
 TTTTTTTTTTTTTTTTTTTTTTTTTTTTTT PDIG        TELAPSE      121.14 TCPU       54.74
 CHARGE NORMALIZATION FACTOR   1.00000000
 TOTAL ATOMIC CHARGES:
  16.0000000  16.0000000
 TTTTTTTTTTTTTTTTTTTTTTTTTTTTTT MOQGAD      TELAPSE      121.14 TCPU       54.75
 TTTTTTTTTTTTTTTTTTTTTTTTTTTTTT SHELLX      TELAPSE      121.39 TCPU       54.86
 +++ ENERGIES IN A.U. +++
 ::: EXT EL-POLE                                   9.5096307676499E+00
 ::: EXT EL-SPHEROPOLE                             0.0000000000000E+00
 ::: BIELET ZONE E-E                               4.1537537491161E+02
 ::: TOTAL E-E                                     4.2488500567926E+02
 ::: TOTAL E-N + N-E                              -2.0346907454155E+03
 ::: TOTAL N-N                                     7.1676912870255E+01
 ::: KINETIC ENERGY                                7.9310072614207E+02
 ::: PSEUDO TOTAL   ENERGY                        -7.4502810072390E+02
 ::: VIRIAL COEFFICIENT                            1.0312539655837E+00
 TTTTTTTTTTTTTTTTTTTTTTTTTTTTTT MONMO3      TELAPSE      121.40 TCPU       54.86
 NUMERICALLY INTEGRATED DENSITY     31.9999607218
 TTTTTTTTTTTTTTTTTTTTTTTTTTTTTT NUMDFT      TELAPSE      124.37 TCPU       56.13
 CYC  40 ETOT(AU) -7.959582412331E+02 DETOT -6.28E-08 tst  3.39E-09 PX  4.22E-05

 == SCF ENDED - CONVERGENCE ON ENERGY      E(AU) -7.9595824123309E+02 CYCLES  40


 ENERGY EXPRESSION=HARTREE+FOCK EXCH*0.00000+(PBE   EXCH)*1.00000+PBE   CORR


 TOTAL ENERGY(DFT)(AU)( 40) -7.9595824123309E+02 DE-6.3E-08 tst 3.4E-09
 TTTTTTTTTTTTTTTTTTTTTTTTTTTTTT EDFT        TELAPSE      124.37 TCPU       56.13

 *******************************************************************************
 *                             FORCE CALCULATION                               *
 *******************************************************************************

 TTTTTTTTTTTTTTTTTTTTTTTTTTTTTT NUMDFG      TELAPSE      132.98 TCPU       59.65
 INFORMATION **** EXCPOG **** EXCH. BIPO BUFFER LENGTH (WORDS) =         0
 INFORMATION **** GENPOG **** BIPO BUFFER LENGTH (WORDS) =      7500
 TTTTTTTTTTTTTTTTTTTTTTTTTTTTTT SHELXG      TELAPSE      134.33 TCPU       60.20

 CARTESIAN FORCES (ANALYTICAL)
   ATOM                     X                   Y                   Z
   1  16            -1.461009222034E-02 -2.431491056669E-03 -2.376092903349E-02
   2  16             1.461009222085E-02  2.431491056473E-03  2.376092903342E-02

 RESULTANT FORCE     5.151434834261E-13 -1.956212969390E-13 -6.750155989721E-14

 SYMMETRY ALLOWED FORCES (ANALYTICAL) (DIRECTION, FORCE)

    1 -3.9596684E-02
 TTTTTTTTTTTTTTTTTTTTTTTTTTTTTT TOTGRA      TELAPSE      134.51 TCPU       60.23
 *******************************************************************************
 ATOMS IN THE ASYMMETRIC UNIT    2 - ATOMS IN THE UNIT CELL:    2
     ATOM          X(ANGSTROM)         Y(ANGSTROM)         Z(ANGSTROM)
 *******************************************************************************
   1 T  16 S    -3.165532908050E-01 -9.295820456700E-02 -4.031920827880E-01
   2 T  16 S     6.697026633040E-01  7.105893642200E-02  1.200708653058E+00

 T = ATOM BELONGING TO THE ASYMMETRIC UNIT
 INFORMATION **** opta001 **** GEOMETRY OUTPUT FILE
 CLASSICAL MODEL (SCHLEGEL) USED AS INITIAL HESSIAN MATRIX
 REFERENCE GEOMETRY DEFINED

 MAX GRADIENT      0.039597  THRESHOLD              0.000450 CONVERGED NO
 RMS GRADIENT      0.039597  THRESHOLD              0.000300 CONVERGED NO

 GRADIENT NORM     0.039597  GRADIENT THRESHOLD     0.500000

 PREDICTED ENERGY CHANGE    -0.185E-03

 INITIAL DISPLACEMENTS
 -0.004832
 TTTTTTTTTTTTTTTTTTTTTTTTTTTTTT OPTI        TELAPSE      134.51 TCPU       60.23

 OPTOPTOPTOPTOPTOPTOPTOPTOPTOPTOPTOPTOPTOPTOPTOPTOPTOPTOPTOPTOPTOPTOPTOPTOPTOPT

 STARTING GEOMETRY OPTIMIZATION - INFORMATION ON SCF MOVED TO SCFOUT.LOG
 GEOMETRY OPTIMIZATION INFORMATION STORED IN OPTINFO.DAT

 OPTOPTOPTOPTOPTOPTOPTOPTOPTOPTOPTOPTOPTOPTOPTOPTOPTOPTOPTOPTOPTOPTOPTOPTOPTOPT
 *******************************************************************************
 COORDINATE OPTIMIZATION - POINT    2
 *******************************************************************************
 ATOMS IN THE ASYMMETRIC UNIT    2 - ATOMS IN THE UNIT CELL:    2
     ATOM          X(ANGSTROM)         Y(ANGSTROM)         Z(ANGSTROM)
 *******************************************************************************
   1 T  16 S    -3.174967291638E-01 -9.311510102137E-02 -4.047263513230E-01
   2 T  16 S     6.706461016628E-01  7.121583287637E-02  1.202242921593E+00

 T = ATOM BELONGING TO THE ASYMMETRIC UNIT

 TOTAL ENERGY(DFT)(AU)( 45) -7.9595842465831E+02     DE (AU)   -1.834E-04
 *******************************************************************************
 ATOMS IN THE ASYMMETRIC UNIT    2 - ATOMS IN THE UNIT CELL:    2
     ATOM          X(ANGSTROM)         Y(ANGSTROM)         Z(ANGSTROM)
 *******************************************************************************
   1 T  16 S    -3.174967291638E-01 -9.311510102137E-02 -4.047263513230E-01
   2 T  16 S     6.706461016628E-01  7.121583287637E-02  1.202242921593E+00

 T = ATOM BELONGING TO THE ASYMMETRIC UNIT
 INFORMATION **** opta002 **** GEOMETRY OUTPUT FILE

 SYMMETRY ALLOWED FORCES  (COORDINATE, FORCE)

    1 -3.6298503E-02

 GRADIENT NORM     0.036299  GRADIENT THRESHOLD     0.500000

 PREDICTED ENERGY CHANGE    -0.965E-03

 MAX GRADIENT      0.036299  THRESHOLD              0.000450 CONVERGED NO
 RMS GRADIENT      0.036299  THRESHOLD              0.000300 CONVERGED NO
 MAX DISPLAC.      0.053176  THRESHOLD              0.001800 CONVERGED NO
 RMS DISPLAC.      0.053176  THRESHOLD              0.001200 CONVERGED NO
 TTTTTTTTTTTTTTTTTTTTTTTTTTTTTT OPTI        TELAPSE      286.44 TCPU      126.40
 *******************************************************************************
 COORDINATE OPTIMIZATION - POINT    3
 *******************************************************************************
 ATOMS IN THE ASYMMETRIC UNIT    2 - ATOMS IN THE UNIT CELL:    2
     ATOM          X(ANGSTROM)         Y(ANGSTROM)         Z(ANGSTROM)
 *******************************************************************************
   1 T  16 S    -3.278798475398E-01 -9.484184283063E-02 -4.216119185374E-01
   2 T  16 S     6.810292200388E-01  7.294257468563E-02  1.219128488807E+00

 T = ATOM BELONGING TO THE ASYMMETRIC UNIT

 TOTAL ENERGY(DFT)(AU)( 45) -7.9595946481929E+02     DE (AU)   -1.040E-03
 *******************************************************************************
 ATOMS IN THE ASYMMETRIC UNIT    2 - ATOMS IN THE UNIT CELL:    2
     ATOM          X(ANGSTROM)         Y(ANGSTROM)         Z(ANGSTROM)
 *******************************************************************************
   1 T  16 S    -3.278798475398E-01 -9.484184283063E-02 -4.216119185374E-01
   2 T  16 S     6.810292200388E-01  7.294257468563E-02  1.219128488807E+00

 T = ATOM BELONGING TO THE ASYMMETRIC UNIT
 INFORMATION **** opta003 **** GEOMETRY OUTPUT FILE

 SYMMETRY ALLOWED FORCES  (COORDINATE, FORCE)

    1 -3.7301814E-03

 GRADIENT NORM     0.003730  GRADIENT THRESHOLD     0.500000

 PREDICTED ENERGY CHANGE    -0.114E-04

 MAX GRADIENT      0.003730  THRESHOLD              0.000450 CONVERGED NO
 RMS GRADIENT      0.003730  THRESHOLD              0.000300 CONVERGED NO
 MAX DISPLAC.      0.006090  THRESHOLD              0.001800 CONVERGED NO
 RMS DISPLAC.      0.006090  THRESHOLD              0.001200 CONVERGED NO
 TTTTTTTTTTTTTTTTTTTTTTTTTTTTTT OPTI        TELAPSE      455.60 TCPU      193.75
 *******************************************************************************
 COORDINATE OPTIMIZATION - POINT    4
 *******************************************************************************
 ATOMS IN THE ASYMMETRIC UNIT    2 - ATOMS IN THE UNIT CELL:    2
     ATOM          X(ANGSTROM)         Y(ANGSTROM)         Z(ANGSTROM)
 *******************************************************************************
   1 T  16 S    -3.290690680048E-01 -9.503961354102E-02 -4.235458907186E-01
   2 T  16 S     6.822184405038E-01  7.314034539602E-02  1.221062460989E+00

 T = ATOM BELONGING TO THE ASYMMETRIC UNIT

 TOTAL ENERGY(DFT)(AU)( 45) -7.9595947761617E+02     DE (AU)   -1.280E-05
 *******************************************************************************
 ATOMS IN THE ASYMMETRIC UNIT    2 - ATOMS IN THE UNIT CELL:    2
     ATOM          X(ANGSTROM)         Y(ANGSTROM)         Z(ANGSTROM)
 *******************************************************************************
   1 T  16 S    -3.290690680048E-01 -9.503961354102E-02 -4.235458907186E-01
   2 T  16 S     6.822184405038E-01  7.314034539602E-02  1.221062460989E+00

 T = ATOM BELONGING TO THE ASYMMETRIC UNIT
 INFORMATION **** opta004 **** GEOMETRY OUTPUT FILE

 SYMMETRY ALLOWED FORCES  (COORDINATE, FORCE)

    1 -3.8487394E-04

 GRADIENT NORM     0.000385  GRADIENT THRESHOLD     0.500000

 PREDICTED ENERGY CHANGE    -0.135E-06

 MAX GRADIENT      0.000385  THRESHOLD              0.000450 CONVERGED YES
 RMS GRADIENT      0.000385  THRESHOLD              0.000300 CONVERGED NO
 MAX DISPLAC.      0.000701  THRESHOLD              0.001800 CONVERGED YES
 RMS DISPLAC.      0.000701  THRESHOLD              0.001200 CONVERGED YES
 TTTTTTTTTTTTTTTTTTTTTTTTTTTTTT OPTI        TELAPSE      619.70 TCPU      260.18
 *******************************************************************************
 COORDINATE OPTIMIZATION - POINT    5
 *******************************************************************************
 ATOMS IN THE ASYMMETRIC UNIT    2 - ATOMS IN THE UNIT CELL:    2
     ATOM          X(ANGSTROM)         Y(ANGSTROM)         Z(ANGSTROM)
 *******************************************************************************
   1 T  16 S    -3.292058865094E-01 -9.506236684342E-02 -4.237683920879E-01
   2 T  16 S     6.823552590084E-01  7.316309869842E-02  1.221284962358E+00

 T = ATOM BELONGING TO THE ASYMMETRIC UNIT

 TOTAL ENERGY(DFT)(AU)( 45) -7.9595947790941E+02     DE (AU)   -2.932E-07
 *******************************************************************************
 ATOMS IN THE ASYMMETRIC UNIT    2 - ATOMS IN THE UNIT CELL:    2
     ATOM          X(ANGSTROM)         Y(ANGSTROM)         Z(ANGSTROM)
 *******************************************************************************
   1 T  16 S    -3.292058865094E-01 -9.506236684342E-02 -4.237683920879E-01
   2 T  16 S     6.823552590084E-01  7.316309869842E-02  1.221284962358E+00

 T = ATOM BELONGING TO THE ASYMMETRIC UNIT
 INFORMATION **** opta005 **** GEOMETRY OUTPUT FILE

 SYMMETRY ALLOWED FORCES  (COORDINATE, FORCE)

    1 -5.0525735E-06

 GRADIENT NORM     0.000005  GRADIENT THRESHOLD     0.500000

 PREDICTED ENERGY CHANGE    -0.235E-10

 MAX GRADIENT      0.000005  THRESHOLD              0.000450 CONVERGED YES
 RMS GRADIENT      0.000005  THRESHOLD              0.000300 CONVERGED YES
 MAX DISPLAC.      0.000009  THRESHOLD              0.001800 CONVERGED YES
 RMS DISPLAC.      0.000009  THRESHOLD              0.001200 CONVERGED YES

 CONVERGENCE TESTS SATISFIED AFTER   5 ENERGY AND GRADIENT CALCULATIONS

 ******************************************************************
 * OPT END - CONVERGED * E(AU):  -7.959594779094E+02  POINTS    5 *
 ******************************************************************

 EIGENVECTORS IN FORTRAN UNIT  8

 NEIGHBORS OF THE NON-EQUIVALENT ATOMS

 N = NUMBER OF NEIGHBORS AT DISTANCE R
    ATOM  N     R/ANG      R/AU   NEIGHBORS (ATOM LABELS AND CELL INDICES)
   1 S    1     1.9385     3.6632   2 S    0 0 0

   2 S    1     1.9385     3.6632   1 S    0 0 0


 FINAL OPTIMIZED GEOMETRY - DIMENSIONALITY OF THE SYSTEM      0
 (NON PERIODIC DIRECTION: LATTICE PARAMETER FORMALLY SET TO 500)
 *******************************************************************************
 ATOMS IN THE ASYMMETRIC UNIT    2 - ATOMS IN THE UNIT CELL:    2
     ATOM          X(ANGSTROM)         Y(ANGSTROM)         Z(ANGSTROM)
 *******************************************************************************
   1 T  16 S    -3.292058865094E-01 -9.506236684342E-02 -4.237683920879E-01
   2 T  16 S     6.823552590084E-01  7.316309869842E-02  1.221284962358E+00

 T = ATOM BELONGING TO THE ASYMMETRIC UNIT
 INFORMATION **** fort.34 **** GEOMETRY OUTPUT FILE

 ****   1 SYMMOPS - TRANSLATORS IN FRACTIONARY UNITS
  V INV                   ROTATION MATRICES                       TRANSLATOR
  1  1  1.00  0.00  0.00  0.00  1.00  0.00  0.00  0.00  1.00    0.00  0.00  0.00
 TTTTTTTTTTTTTTTTTTTTTTTTTTTTTT END         TELAPSE      770.34 TCPU      326.57
 EEEEEEEEEE TERMINATION  DATE 20 01 2010 TIME 15:00:19.8
Wed Jan 20 15:00:19 GMT 2010
total 1984
-rw-r--r-- 1 pc229 pc229      22 Jan 20 15:00 OPTHESS.DAT
-rw-r--r-- 1 pc229 pc229 1577289 Jan 20 15:00 OPTINFO.DAT
-rw-r--r-- 1 pc229 pc229  154400 Jan 20 15:00 SCFOUT.LOG
-rw-r--r-- 1 pc229 pc229   15496 Jan 20 15:00 fort.10
-rw-r--r-- 1 pc229 pc229    8400 Jan 20 15:00 fort.11
-rw-r--r-- 1 pc229 pc229   13868 Jan 20 14:57 fort.12
-rw-r--r-- 1 pc229 pc229   34356 Jan 20 15:00 fort.20
-rw-r--r-- 1 pc229 pc229    3384 Jan 20 15:00 fort.33
-rwxr-xr-x 1 pc229 pc229     619 Jan 20 15:00 fort.34
-rw-r--r-- 1 pc229 pc229   15496 Jan 20 15:00 fort.8
-rw-r--r-- 1 pc229 pc229   34356 Jan 20 15:00 fort.9
-rw-r--r-- 1 pc229 pc229   11216 Jan 20 15:00 fort.95
-rw-r--r-- 1 pc229 pc229    8400 Jan 20 14:57 fort.96
-rw-r--r-- 1 pc229 pc229   87624 Jan 20 15:00 fort.98
-rw-r--r-- 1 pc229 pc229     619 Jan 20 14:49 opta001
-rw-r--r-- 1 pc229 pc229     619 Jan 20 14:52 opta002
-rw-r--r-- 1 pc229 pc229     619 Jan 20 14:55 opta003
-rw-r--r-- 1 pc229 pc229     619 Jan 20 14:57 opta004
-rw-r--r-- 1 pc229 pc229     619 Jan 20 15:00 opta005
wave function binary file /media/external/PhD-Kent/Counts/CRY/Molecules/S2_CRYSTAL_PBE/S2.f9
Wed Jan 20 15:00:19 GMT 2010
file fort.98 saved as /media/external/PhD-Kent/Counts/CRY/Molecules/S2_CRYSTAL_PBE/S2.f98
file SCFOUT.LOG saved as /media/external/PhD-Kent/Counts/CRY/Molecules/S2_CRYSTAL_PBE/S2.SCFLOG
file fort.20 saved as /media/external/PhD-Kent/Counts/CRY/Molecules/S2_CRYSTAL_PBE/S2.f20
file fort.33 saved as /media/external/PhD-Kent/Counts/CRY/Molecules/S2_CRYSTAL_PBE/S2.xyz
geometry input file fort.34 saved as /media/external/PhD-Kent/Counts/CRY/Molecules/S2_CRYSTAL_PBE/S2.gui
file optaxxx saved as /media/external/PhD-Kent/Counts/CRY/Molecules/S2_CRYSTAL_PBE/S2.optstory/opta001 /media/external/PhD-Kent/Counts/CRY/Molecules/S2_CRYSTAL_PBE/S2.optstory/opta002 /media/external/PhD-Kent/Counts/CRY/Molecules/S2_CRYSTAL_PBE/S2.optstory/opta003 /media/external/PhD-Kent/Counts/CRY/Molecules/S2_CRYSTAL_PBE/S2.optstory/opta004 /media/external/PhD-Kent/Counts/CRY/Molecules/S2_CRYSTAL_PBE/S2.optstory/opta005 /media/external/PhD-Kent/Counts/CRY/Molecules/S2_CRYSTAL_PBE/S2.optstory/opta006 /media/external/PhD-Kent/Counts/CRY/Molecules/S2_CRYSTAL_PBE/S2.optstory/opta007
file OPTHESS.DAT saved as /media/external/PhD-Kent/Counts/CRY/Molecules/S2_CRYSTAL_PBE/S2.opthess
file OPTINFO.DAT saved as /media/external/PhD-Kent/Counts/CRY/Molecules/S2_CRYSTAL_PBE/S2.optinfo
/home/pc229/bin/Cry_tmp/tmp23781 removed
