S2 DURAND
MOLECULE
 1
 2
 16    0.000000000000   0.000000000000   -0.416204036016   
 16     0.000000000000   0.000000000000   1.866204036016   
OPTGEOM
END
END
16 6
  0 0 8 2.0 1.0
     109211.0    0.0002520
     16235.206   0.0019934
     3573.0286   0.0111177
     943.23811   0.0498945
     287.26179   0.1661455 
     99.914226   0.3627018
     38.602137   0.4108787 
     15.531224   0.1457875
  0 1 6 8.0 1.0
     281.22171  -0.0057780    0.0081427 
     67.106575  -0.0665855    0.0565570
     21.794135  -0.1203552    0.2039582 
     8.2097646   0.2741310    0.3973328
     3.4178289   0.6463829    0.3946313 
     1.5452225   0.2925792    0.1544345 
  0 1 3 7.0 1.0
     4.3752432  -0.1750000   -0.0613439 
     1.8096201  -0.5938952    0.1272251 
     0.6833985   0.8298996    1.2215893 
  0 1 1 0.0 1.0
     0.2413      1.0          1.0 
  0 1 1 0.0 1.0
     0.106       1.0          1.0
  0 3 1 0. 1.
     0.383       1.0
99 0
END
SCFDIR
DFT
EXCHANGE
PBE
CORRELAT
PBE
XLGRID
ENDDFT
FMIXING
90
LEVSHIFT
16 1
END

         
 *******************************************************************************
 *                                                                             *
 *                                CRYSTAL06                                    *
 *                              Release : 1.0                                  *
 *                           V1.0.1                                            *
 *                                                                             *
 *                                                                             *
 *                                                                             *
 *                              MAIN AUTHORS                                   *
 *                                                                             *
 *        R. DOVESI(1), V.R. SAUNDERS(2), C. ROETTI(1), R. ORLANDO (1,3),      *
 *     C.M. ZICOVICH-WILSON(1,4), F. PASCALE(5), B. CIVALLERI(1), K. DOLL(6),  *
 *        N.M. HARRISON(2,7), I. J. BUSH(2), Ph. D'ARCO(8), M. LLUNELL(9)      *
 *                                                                             *
 * (1) THEORETICAL CHEMISTRY GROUP - UNIVERSITA' DI TORINO - TORINO (ITALY)    *
 *      http://www.crystal.unito.it                                            *
 * (2) COMPUTATIONAL SCIENCE & ENGINEERING DEPARTMENT - CCLRC DARESBURY (UK)   *
 *     http://www.cse.clrc.ac.uk/cmg/CRYSTAL/                                  *
 * (3) UNIVERSITA' DEL PIEMONTE ORIENTALE - ALESSANDRIA (ITALY)                *
 * (4) UNIVERSIDAD AUTONOMA DEL ESTADO DE MORELOS - CUERNAVACA (MEXICO)        *
 * (5) UNIVERSITE' HENRI POINCARE' - NANCY (FRANCE)                            *
 * (6) TU BRAUNSCHWEIG - BRAUNSCHWEIG (GERMANY)                                *
 * (7) IMPERIAL COLLEGE - LONDON (UK)                                          *
 * (8) UNIVERSITE' PIERRE ET MARIE CURIE - PARIS (FRANCE)                      *
 * (9) UNIVERSIDAD DE BARCELONA - BARCELONA (SPAIN)                            *
 *******************************************************************************
 EEEEEEEEEE STARTING  DATE 20 01 2010 TIME 01:42:35.9
 S2 DURAND                                                                       

 MOLECULAR CALCULATION
 POINT  GROUP  N.  1                  :  1      OR  C1   
 CORRESPONDING SPACE GROUP            :  P 1             


 NUMBER OF IRREDUCIBLE ATOMS IN THE CONVENTIONAL CELL:    2

 INPUT COORDINATES

 ATOM AT. N.              COORDINATES
   1  16     0.000000000000E+00  0.000000000000E+00 -4.162040360160E-01
   2  16     0.000000000000E+00  0.000000000000E+00  1.866204036016E+00

 COORDINATES OF THE EQUIVALENT ATOMS (ANGSTROMS)

 N. ATOM EQUIV AT. N.          X                  Y                  Z

   1   1   1   16 S     0.00000000000E+00  3.08148791102E-33 -4.16204036016E-01

   2   2   1   16 S     0.00000000000E+00  0.00000000000E+00  1.86620403602E+00

 NUMBER OF SYMMETRY OPERATORS         :    1
 *******************************************************************************
 * GEOMETRY EDITING - INPUT COORDINATES ARE GIVEN IN ANGSTROM          
 *******************************************************************************
 *******************************************************************************
 ATOMIC POSITIONS OPTIMIZATION CONTROL

 MAXIMUM GRADIENT COMPONENT   0.00045 MAXIMUM DISPLACEMENT COMPONENT     0.00030
 R.M.S. OF GRADIENT COMPONENT 0.00180 R.M.S. OF DISPLACEMENT COMPONENTS  0.00120
 THRESHOLD ON ENERGY CHANGE 0.100E-06 EXTRAPOLATING POLYNOMIAL ORDER           2
 MAXIMUM ALLOWED NUMBER OF STEPS  100 SORTING OF ENERGY POINTS:               NO
 ANALYTICAL  GRADIENT                 HESSIAN UPDATING                      BFGS
 STEP SIZE NUMERICAL GRADIENT 0.00100
 INITIAL HESSIAN MATRIX: SCHLEGEL MODEL 2
 *******************************************************************************


 GEOMETRY FOR WAVE FUNCTION - DIMENSIONALITY OF THE SYSTEM    0
 (NON PERIODIC DIRECTION: LATTICE PARAMETER FORMALLY SET TO 500)
 *******************************************************************************
 ATOMS IN THE ASYMMETRIC UNIT    2 - ATOMS IN THE UNIT CELL:    2
     ATOM          X(ANGSTROM)         Y(ANGSTROM)         Z(ANGSTROM)
 *******************************************************************************
   1 T  16 S     0.000000000000E+00  3.081487911020E-33 -4.162040360160E-01
   2 T  16 S     0.000000000000E+00  0.000000000000E+00  1.866204036016E+00

 T = ATOM BELONGING TO THE ASYMMETRIC UNIT

 ****   1 SYMMOPS - TRANSLATORS IN FRACTIONARY UNITS
  V INV                   ROTATION MATRICES                       TRANSLATOR
  1  1  1.00  0.00  0.00  0.00  1.00  0.00  0.00  0.00  1.00    0.00  0.00  0.00

 NUCLEAR CHARGE  3.200E+01 CHARGE ON SHELLS  3.400E+01

 *******************************************************************************
 LOCAL ATOMIC FUNCTIONS BASIS SET
 *******************************************************************************
   ATOM  X(AU)  Y(AU)  Z(AU)    NO. TYPE  EXPONENT  S COEF   P COEF   D/F/G COEF
 *******************************************************************************
   1 S   0.000  0.000 -0.787
                                  1 S  
                                         1.092E+05 2.520E-04 0.000E+00 0.000E+00
                                         1.624E+04 1.993E-03 0.000E+00 0.000E+00
                                         3.573E+03 1.112E-02 0.000E+00 0.000E+00
                                         9.432E+02 4.989E-02 0.000E+00 0.000E+00
                                         2.873E+02 1.661E-01 0.000E+00 0.000E+00
                                         9.991E+01 3.627E-01 0.000E+00 0.000E+00
                                         3.860E+01 4.109E-01 0.000E+00 0.000E+00
                                         1.553E+01 1.458E-01 0.000E+00 0.000E+00
                             2-   5 SP 
                                         2.812E+02-5.778E-03 8.143E-03 0.000E+00
                                         6.711E+01-6.659E-02 5.656E-02 0.000E+00
                                         2.179E+01-1.204E-01 2.040E-01 0.000E+00
                                         8.210E+00 2.741E-01 3.973E-01 0.000E+00
                                         3.418E+00 6.464E-01 3.946E-01 0.000E+00
                                         1.545E+00 2.926E-01 1.544E-01 0.000E+00
                             6-   9 SP 
                                         4.375E+00-1.750E-01-6.134E-02 0.000E+00
                                         1.810E+00-5.939E-01 1.272E-01 0.000E+00
                                         6.834E-01 8.299E-01 1.222E+00 0.000E+00
                            10-  13 SP 
                                         2.413E-01 1.000E+00 1.000E+00 0.000E+00
                            14-  17 SP 
                                         1.060E-01 1.000E+00 1.000E+00 0.000E+00
                            18-  22 D  
                                         3.830E-01 0.000E+00 0.000E+00 1.000E+00
   2 S   0.000  0.000  3.527
 INFORMATION **** READM2 **** FULL DIRECT SCF (MONO AND BIEL INT) SELECTED
 *******************************************************************************
 N. OF ATOMS PER CELL        2  COULOMB OVERLAP TOL         (T1) 10** -6
 NUMBER OF SHELLS           12  COULOMB PENETRATION TOL     (T2) 10** -6
 NUMBER OF AO               44  EXCHANGE OVERLAP TOL        (T3) 10** 20
 N. OF ELECTRONS PER CELL   34  EXCHANGE PSEUDO OVP (F(G))  (T4) 10** 20
 CORE ELECTRONS PER CELL    20  EXCHANGE PSEUDO OVP (P(G))  (T5) 10** 20
 N. OF SYMMETRY OPERATORS    1  POLE ORDER IN MONO ZONE                4
 *******************************************************************************
 TYPE OF CALCULATION :  RESTRICTED CLOSED SHELL
 KOHN-SHAM HAMILTONIAN

 (EXCHANGE)[CORRELATION] FUNCTIONAL:(PERDEW-BURKE-ERNZERHOF)[PERDEW-BURKE-ERNZERHOF]

 EIGENVALUE LEVEL SHIFTING OF  1.600 HARTREE
 LOCKING - FERMI ENERGY ALTERED BY LEVEL SHIFTER
 *******************************************************************************
 MAX NUMBER OF SCF CYCLES      50  CONVERGENCE ON DELTAP        10**-16
 WEIGHT OF F(I) IN F(I+1)      90% CONVERGENCE ON ENERGY        10**- 7
 EIGENVALUE LEVEL SHIFTING OF  1.600 HARTREE
 LOCKING - FERMI ENERGY ALTERED BY LEVEL SHIFTER

 DISK SPACE FOR EIGENVECTORS (FTN 10)       1936 REALS

 SYMMETRY ADAPTION OF THE BLOCH FUNCTIONS DISABLED

 DIMENSIONS  P(G)=    1886 F(G)=     965 P(G),F(G) (IRR)    1033
 MAX G-VECTOR INDEX FOR 1- AND 2-ELECTRON INTEGRALS   1

 TTTTTTTTTTTTTTTTTTTTTTTTTTTTTT INPUT       TELAPSE        0.03 TCPU        0.03

 NEIGHBORS OF THE NON-EQUIVALENT ATOMS

 N = NUMBER OF NEIGHBORS AT DISTANCE R
    ATOM  N     R/ANG      R/AU   NEIGHBORS (ATOM LABELS AND CELL INDICES)
   1 S    1     2.2824     4.3131   2 S    0 0 0

   2 S    1     2.2824     4.3131   1 S    0 0 0


 SYMMETRY ALLOWED INTERNAL DEGREE(S) OF FREEDOM:   1
 TTTTTTTTTTTTTTTTTTTTTTTTTTTTTT SYMM        TELAPSE        0.03 TCPU        0.03
 *******************************************************************************
 COORDINATE OPTIMIZATION - POINT    1
 INFORMATION **** EXCBUF **** EXCH. BIPO BUFFER: WORDS USED =         0

 DFT PARAMETERS

     ATOM       ELECTRONS   NET CHARGE   R(ANGSTROM)
   1  16  S      17.0000     -1.0000     1.44000000

 SIZE OF GRID=      71374
 TTTTTTTTTTTTTTTTTTTTTTTTTTTTTT MAKEGRID    TELAPSE        0.13 TCPU        0.11
 BECKE WEIGHT FUNCTION
 RADSAFE =     2.00
 TOLERANCES - DENSITY:10**- 6; POTENTIAL:10**- 9; GRID WGT:10**-14

 RADIAL INTEGRATION  - INTERVALS (POINTS,UPPER LIMIT):            1( 75,  4.0*R)

 ANGULAR INTEGRATION - INTERVALS (ACCURACY LEVEL [N. POINTS] UPPER LIMIT):
  1(  4[  86]   0.2)  2(  8[ 194]   0.5)  3( 12[ 350]   0.9)  4( 16[ 974]   3.5)
  5( 12[ 350]9999.0)

 *******************************************************************************
 S2 DURAND                                                                       
 CRYSTAL - SCF - TYPE OF CALCULATION :  RESTRICTED CLOSED SHELL
 *******************************************************************************
 TTTTTTTTTTTTTTTTTTTTTTTTTTTTTT SDIK        TELAPSE        0.13 TCPU        0.11

 AAAAAAAAAAAAAAAAAAAAAAAAAAAAAAAAAAAAAAAAAAAAAAAAAAAAAAAAAAAAAAAAAAAAAAAAAAAAAAA
         ATOMIC WAVEFUNCTION(S)


 NUCLEAR CHARGE 16.0  SYMMETRY SPECIES            S    P
 N. ELECTRONS   17.0  NUMBER OF PRIMITIVE GTOS   19   11
                      NUMBER OF CONTRACTED GTOS   5    4
                      NUMBER OF CLOSED SHELLS     3    1
                      OPEN SHELL OCCUPATION       0    5

  ZNUC SCFIT  TOTAL HF ENERGY   KINETIC ENERGY   VIRIAL THEOREM ACCURACY
  16.0  11   -3.975118079E+02  3.976180550E+02 -1.999732791E+00  4.9E-06

 AAAAAAAAAAAAAAAAAAAAAAAAAAAAAAAAAAAAAAAAAAAAAAAAAAAAAAAAAAAAAAAAAAAAAAAAAAAAAAA

 CHARGE NORMALIZATION FACTOR   1.00000000
 TOTAL ATOMIC CHARGES:
  17.0000000  17.0000000
 TTTTTTTTTTTTTTTTTTTTTTTTTTTTTT MOQGAD      TELAPSE        0.15 TCPU        0.12
 TTTTTTTTTTTTTTTTTTTTTTTTTTTTTT SHELLX      TELAPSE        0.27 TCPU        0.23
 TTTTTTTTTTTTTTTTTTTTTTTTTTTTTT MONMO3      TELAPSE        0.27 TCPU        0.23
 NUMERICALLY INTEGRATED DENSITY     33.9999999154
 TTTTTTTTTTTTTTTTTTTTTTTTTTTTTT NUMDFT      TELAPSE        0.94 TCPU        0.89
 CYC   0 ETOT(AU) -7.960892017040E+02 DETOT -7.96E+02 tst  0.00E+00 PX  1.00E+00
 TTTTTTTTTTTTTTTTTTTTTTTTTTTTTT FDIK        TELAPSE        0.94 TCPU        0.89
 INSULATING STATE - TOP OF VALENCE BANDS (A.U.)  2.9196551E-01
 TTTTTTTTTTTTTTTTTTTTTTTTTTTTTT PDIG        TELAPSE        0.94 TCPU        0.89
 CHARGE NORMALIZATION FACTOR   1.00000000
 TOTAL ATOMIC CHARGES:
  17.0000000  17.0000000
 TTTTTTTTTTTTTTTTTTTTTTTTTTTTTT MOQGAD      TELAPSE        0.95 TCPU        0.90
 TTTTTTTTTTTTTTTTTTTTTTTTTTTTTT SHELLX      TELAPSE        1.10 TCPU        1.06
 TTTTTTTTTTTTTTTTTTTTTTTTTTTTTT MONMO3      TELAPSE        1.11 TCPU        1.06
 NUMERICALLY INTEGRATED DENSITY     33.9999999018
 TTTTTTTTTTTTTTTTTTTTTTTTTTTTTT NUMDFT      TELAPSE        1.88 TCPU        1.83
 CYC   1 ETOT(AU) -7.958673189347E+02 DETOT  2.22E-01 tst  0.00E+00 PX  1.00E+00
 TTTTTTTTTTTTTTTTTTTTTTTTTTTTTT FDIK        TELAPSE        1.88 TCPU        1.83
 INSULATING STATE - TOP OF VALENCE BANDS (A.U.) -1.3129560E+00
 TTTTTTTTTTTTTTTTTTTTTTTTTTTTTT PDIG        TELAPSE        1.88 TCPU        1.84
 CHARGE NORMALIZATION FACTOR   1.00000000
 TOTAL ATOMIC CHARGES:
  17.0000000  17.0000000
 TTTTTTTTTTTTTTTTTTTTTTTTTTTTTT MOQGAD      TELAPSE        1.88 TCPU        1.84
 TTTTTTTTTTTTTTTTTTTTTTTTTTTTTT SHELLX      TELAPSE        2.01 TCPU        1.95
 TTTTTTTTTTTTTTTTTTTTTTTTTTTTTT MONMO3      TELAPSE        2.02 TCPU        1.95
 NUMERICALLY INTEGRATED DENSITY     33.9999999021
 TTTTTTTTTTTTTTTTTTTTTTTTTTTTTT NUMDFT      TELAPSE        2.79 TCPU        2.71
 CYC   2 ETOT(AU) -7.958718949360E+02 DETOT -4.58E-03 tst  6.62E-05 PX  3.00E-03
 TTTTTTTTTTTTTTTTTTTTTTTTTTTTTT FDIK        TELAPSE        2.79 TCPU        2.71
 INSULATING STATE - TOP OF VALENCE BANDS (A.U.) -1.3172367E+00
 TTTTTTTTTTTTTTTTTTTTTTTTTTTTTT PDIG        TELAPSE        2.79 TCPU        2.71
 CHARGE NORMALIZATION FACTOR   1.00000000
 TOTAL ATOMIC CHARGES:
  17.0000000  17.0000000
 TTTTTTTTTTTTTTTTTTTTTTTTTTTTTT MOQGAD      TELAPSE        2.80 TCPU        2.71
 TTTTTTTTTTTTTTTTTTTTTTTTTTTTTT SHELLX      TELAPSE        2.92 TCPU        2.85
 TTTTTTTTTTTTTTTTTTTTTTTTTTTTTT MONMO3      TELAPSE        2.93 TCPU        2.85
 NUMERICALLY INTEGRATED DENSITY     33.9999999027
 TTTTTTTTTTTTTTTTTTTTTTTTTTTTTT NUMDFT      TELAPSE        3.70 TCPU        3.63
 CYC   3 ETOT(AU) -7.958785433502E+02 DETOT -6.65E-03 tst  1.87E-04 PX  5.50E-03
 TTTTTTTTTTTTTTTTTTTTTTTTTTTTTT FDIK        TELAPSE        3.71 TCPU        3.63
 INSULATING STATE - TOP OF VALENCE BANDS (A.U.) -1.3208202E+00
 TTTTTTTTTTTTTTTTTTTTTTTTTTTTTT PDIG        TELAPSE        3.71 TCPU        3.63
 CHARGE NORMALIZATION FACTOR   1.00000000
 TOTAL ATOMIC CHARGES:
  17.0000000  17.0000000
 TTTTTTTTTTTTTTTTTTTTTTTTTTTTTT MOQGAD      TELAPSE        3.71 TCPU        3.63
 TTTTTTTTTTTTTTTTTTTTTTTTTTTTTT SHELLX      TELAPSE        3.84 TCPU        3.76
 TTTTTTTTTTTTTTTTTTTTTTTTTTTTTT MONMO3      TELAPSE        3.84 TCPU        3.76
 NUMERICALLY INTEGRATED DENSITY     33.9999999035
 TTTTTTTTTTTTTTTTTTTTTTTTTTTTTT NUMDFT      TELAPSE        4.63 TCPU        4.54
 CYC   4 ETOT(AU) -7.958854348066E+02 DETOT -6.89E-03 tst  2.87E-04 PX  7.12E-03
 TTTTTTTTTTTTTTTTTTTTTTTTTTTTTT FDIK        TELAPSE        4.63 TCPU        4.54
 INSULATING STATE - TOP OF VALENCE BANDS (A.U.) -1.3236926E+00
 TTTTTTTTTTTTTTTTTTTTTTTTTTTTTT PDIG        TELAPSE        4.63 TCPU        4.54
 CHARGE NORMALIZATION FACTOR   1.00000000
 TOTAL ATOMIC CHARGES:
  17.0000000  17.0000000
 TTTTTTTTTTTTTTTTTTTTTTTTTTTTTT MOQGAD      TELAPSE        4.64 TCPU        4.56
 TTTTTTTTTTTTTTTTTTTTTTTTTTTTTT SHELLX      TELAPSE        4.76 TCPU        4.68
 TTTTTTTTTTTTTTTTTTTTTTTTTTTTTT MONMO3      TELAPSE        4.77 TCPU        4.68
 NUMERICALLY INTEGRATED DENSITY     33.9999999043
 TTTTTTTTTTTTTTTTTTTTTTTTTTTTTT NUMDFT      TELAPSE        5.54 TCPU        5.44
 CYC   5 ETOT(AU) -7.958915369515E+02 DETOT -6.10E-03 tst  3.38E-04 PX  8.01E-03
 TTTTTTTTTTTTTTTTTTTTTTTTTTTTTT FDIK        TELAPSE        5.55 TCPU        5.44
 INSULATING STATE - TOP OF VALENCE BANDS (A.U.) -1.3258784E+00
 TTTTTTTTTTTTTTTTTTTTTTTTTTTTTT PDIG        TELAPSE        5.55 TCPU        5.44
 CHARGE NORMALIZATION FACTOR   1.00000000
 TOTAL ATOMIC CHARGES:
  17.0000000  17.0000000
 TTTTTTTTTTTTTTTTTTTTTTTTTTTTTT MOQGAD      TELAPSE        5.55 TCPU        5.44
 TTTTTTTTTTTTTTTTTTTTTTTTTTTTTT SHELLX      TELAPSE        5.68 TCPU        5.55
 TTTTTTTTTTTTTTTTTTTTTTTTTTTTTT MONMO3      TELAPSE        5.68 TCPU        5.55
 NUMERICALLY INTEGRATED DENSITY     33.9999999051
 TTTTTTTTTTTTTTTTTTTTTTTTTTTTTT NUMDFT      TELAPSE        6.47 TCPU        6.35
 CYC   6 ETOT(AU) -7.958963864874E+02 DETOT -4.85E-03 tst  3.39E-04 PX  8.28E-03
 TTTTTTTTTTTTTTTTTTTTTTTTTTTTTT FDIK        TELAPSE        6.47 TCPU        6.35
 INSULATING STATE - TOP OF VALENCE BANDS (A.U.) -1.3274349E+00
 TTTTTTTTTTTTTTTTTTTTTTTTTTTTTT PDIG        TELAPSE        6.47 TCPU        6.35
 CHARGE NORMALIZATION FACTOR   1.00000000
 TOTAL ATOMIC CHARGES:
  17.0000000  17.0000000
 TTTTTTTTTTTTTTTTTTTTTTTTTTTTTT MOQGAD      TELAPSE        6.48 TCPU        6.35
 TTTTTTTTTTTTTTTTTTTTTTTTTTTTTT SHELLX      TELAPSE        6.60 TCPU        6.47
 TTTTTTTTTTTTTTTTTTTTTTTTTTTTTT MONMO3      TELAPSE        6.61 TCPU        6.49
 NUMERICALLY INTEGRATED DENSITY     33.9999999058
 TTTTTTTTTTTTTTTTTTTTTTTTTTTTTT NUMDFT      TELAPSE        7.38 TCPU        7.25
 CYC   7 ETOT(AU) -7.958999337844E+02 DETOT -3.55E-03 tst  3.03E-04 PX  8.02E-03
 TTTTTTTTTTTTTTTTTTTTTTTTTTTTTT FDIK        TELAPSE        7.38 TCPU        7.25
 INSULATING STATE - TOP OF VALENCE BANDS (A.U.) -1.3284411E+00
 TTTTTTTTTTTTTTTTTTTTTTTTTTTTTT PDIG        TELAPSE        7.38 TCPU        7.25
 CHARGE NORMALIZATION FACTOR   1.00000000
 TOTAL ATOMIC CHARGES:
  17.0000000  17.0000000
 TTTTTTTTTTTTTTTTTTTTTTTTTTTTTT MOQGAD      TELAPSE        7.39 TCPU        7.27
 TTTTTTTTTTTTTTTTTTTTTTTTTTTTTT SHELLX      TELAPSE        7.52 TCPU        7.39
 TTTTTTTTTTTTTTTTTTTTTTTTTTTTTT MONMO3      TELAPSE        7.52 TCPU        7.39
 NUMERICALLY INTEGRATED DENSITY     33.9999999065
 TTTTTTTTTTTTTTTTTTTTTTTTTTTTTT NUMDFT      TELAPSE        8.30 TCPU        8.17
 CYC   8 ETOT(AU) -7.959023423500E+02 DETOT -2.41E-03 tst  2.47E-04 PX  7.39E-03
 TTTTTTTTTTTTTTTTTTTTTTTTTTTTTT FDIK        TELAPSE        8.30 TCPU        8.17
 INSULATING STATE - TOP OF VALENCE BANDS (A.U.) -1.3289876E+00
 TTTTTTTTTTTTTTTTTTTTTTTTTTTTTT PDIG        TELAPSE        8.30 TCPU        8.17
 CHARGE NORMALIZATION FACTOR   1.00000000
 TOTAL ATOMIC CHARGES:
  17.0000000  17.0000000
 TTTTTTTTTTTTTTTTTTTTTTTTTTTTTT MOQGAD      TELAPSE        8.31 TCPU        8.19
 TTTTTTTTTTTTTTTTTTTTTTTTTTTTTT SHELLX      TELAPSE        8.44 TCPU        8.31
 TTTTTTTTTTTTTTTTTTTTTTTTTTTTTT MONMO3      TELAPSE        8.44 TCPU        8.31
 NUMERICALLY INTEGRATED DENSITY     33.9999999070
 TTTTTTTTTTTTTTTTTTTTTTTTTTTTTT NUMDFT      TELAPSE        9.22 TCPU        9.09
 CYC   9 ETOT(AU) -7.959038737437E+02 DETOT -1.53E-03 tst  1.87E-04 PX  6.52E-03
 TTTTTTTTTTTTTTTTTTTTTTTTTTTTTT FDIK        TELAPSE        9.22 TCPU        9.09
 INSULATING STATE - TOP OF VALENCE BANDS (A.U.) -1.3291664E+00
 TTTTTTTTTTTTTTTTTTTTTTTTTTTTTT PDIG        TELAPSE        9.22 TCPU        9.09
 CHARGE NORMALIZATION FACTOR   1.00000000
 TOTAL ATOMIC CHARGES:
  17.0000000  17.0000000
 TTTTTTTTTTTTTTTTTTTTTTTTTTTTTT MOQGAD      TELAPSE        9.23 TCPU        9.11
 TTTTTTTTTTTTTTTTTTTTTTTTTTTTTT SHELLX      TELAPSE        9.35 TCPU        9.24
 TTTTTTTTTTTTTTTTTTTTTTTTTTTTTT MONMO3      TELAPSE        9.36 TCPU        9.24
 NUMERICALLY INTEGRATED DENSITY     33.9999999075
 TTTTTTTTTTTTTTTTTTTTTTTTTTTTTT NUMDFT      TELAPSE       10.13 TCPU       10.02
 CYC  10 ETOT(AU) -7.959047754481E+02 DETOT -9.02E-04 tst  1.32E-04 PX  5.53E-03
 TTTTTTTTTTTTTTTTTTTTTTTTTTTTTT FDIK        TELAPSE       10.13 TCPU       10.02
 INSULATING STATE - TOP OF VALENCE BANDS (A.U.) -1.3290662E+00
 TTTTTTTTTTTTTTTTTTTTTTTTTTTTTT PDIG        TELAPSE       10.13 TCPU       10.02
 CHARGE NORMALIZATION FACTOR   1.00000000
 TOTAL ATOMIC CHARGES:
  17.0000000  17.0000000
 TTTTTTTTTTTTTTTTTTTTTTTTTTTTTT MOQGAD      TELAPSE       10.14 TCPU       10.02
 TTTTTTTTTTTTTTTTTTTTTTTTTTTTTT SHELLX      TELAPSE       10.27 TCPU       10.14
 TTTTTTTTTTTTTTTTTTTTTTTTTTTTTT MONMO3      TELAPSE       10.27 TCPU       10.14
 NUMERICALLY INTEGRATED DENSITY     33.9999999079
 TTTTTTTTTTTTTTTTTTTTTTTTTTTTTT NUMDFT      TELAPSE       11.05 TCPU       10.92
 CYC  11 ETOT(AU) -7.959052644718E+02 DETOT -4.89E-04 tst  8.71E-05 PX  4.49E-03
 TTTTTTTTTTTTTTTTTTTTTTTTTTTTTT FDIK        TELAPSE       11.05 TCPU       10.92
 INSULATING STATE - TOP OF VALENCE BANDS (A.U.) -1.3287674E+00
 TTTTTTTTTTTTTTTTTTTTTTTTTTTTTT PDIG        TELAPSE       11.05 TCPU       10.92
 CHARGE NORMALIZATION FACTOR   1.00000000
 TOTAL ATOMIC CHARGES:
  17.0000000  17.0000000
 TTTTTTTTTTTTTTTTTTTTTTTTTTTTTT MOQGAD      TELAPSE       11.05 TCPU       10.94
 TTTTTTTTTTTTTTTTTTTTTTTTTTTTTT SHELLX      TELAPSE       11.18 TCPU       11.06
 TTTTTTTTTTTTTTTTTTTTTTTTTTTTTT MONMO3      TELAPSE       11.19 TCPU       11.06
 NUMERICALLY INTEGRATED DENSITY     33.9999999082
 TTTTTTTTTTTTTTTTTTTTTTTTTTTTTT NUMDFT      TELAPSE       11.98 TCPU       11.82
 CYC  12 ETOT(AU) -7.959055059863E+02 DETOT -2.42E-04 tst  5.38E-05 PX  3.51E-03
 TTTTTTTTTTTTTTTTTTTTTTTTTTTTTT FDIK        TELAPSE       11.98 TCPU       11.82
 INSULATING STATE - TOP OF VALENCE BANDS (A.U.) -1.3283392E+00
 TTTTTTTTTTTTTTTTTTTTTTTTTTTTTT PDIG        TELAPSE       11.98 TCPU       11.82
 CHARGE NORMALIZATION FACTOR   1.00000000
 TOTAL ATOMIC CHARGES:
  17.0000000  17.0000000
 TTTTTTTTTTTTTTTTTTTTTTTTTTTTTT MOQGAD      TELAPSE       11.99 TCPU       11.82
 TTTTTTTTTTTTTTTTTTTTTTTTTTTTTT SHELLX      TELAPSE       12.11 TCPU       11.97
 TTTTTTTTTTTTTTTTTTTTTTTTTTTTTT MONMO3      TELAPSE       12.12 TCPU       11.97
 NUMERICALLY INTEGRATED DENSITY     33.9999999084
 TTTTTTTTTTTTTTTTTTTTTTTTTTTTTT NUMDFT      TELAPSE       12.90 TCPU       12.76
 CYC  13 ETOT(AU) -7.959056114439E+02 DETOT -1.05E-04 tst  3.42E-05 PX  2.59E-03
 TTTTTTTTTTTTTTTTTTTTTTTTTTTTTT FDIK        TELAPSE       12.90 TCPU       12.76
 INSULATING STATE - TOP OF VALENCE BANDS (A.U.) -1.3278384E+00
 TTTTTTTTTTTTTTTTTTTTTTTTTTTTTT PDIG        TELAPSE       12.90 TCPU       12.76
 CHARGE NORMALIZATION FACTOR   1.00000000
 TOTAL ATOMIC CHARGES:
  17.0000000  17.0000000
 TTTTTTTTTTTTTTTTTTTTTTTTTTTTTT MOQGAD      TELAPSE       12.90 TCPU       12.76
 TTTTTTTTTTTTTTTTTTTTTTTTTTTTTT SHELLX      TELAPSE       13.03 TCPU       12.89
 TTTTTTTTTTTTTTTTTTTTTTTTTTTTTT MONMO3      TELAPSE       13.03 TCPU       12.89
 NUMERICALLY INTEGRATED DENSITY     33.9999999085
 TTTTTTTTTTTTTTTTTTTTTTTTTTTTTT NUMDFT      TELAPSE       13.80 TCPU       13.67
 CYC  14 ETOT(AU) -7.959056516290E+02 DETOT -4.02E-05 tst  2.07E-05 PX  1.78E-03
 TTTTTTTTTTTTTTTTTTTTTTTTTTTTTT FDIK        TELAPSE       13.80 TCPU       13.67
 INSULATING STATE - TOP OF VALENCE BANDS (A.U.) -1.3273099E+00
 TTTTTTTTTTTTTTTTTTTTTTTTTTTTTT PDIG        TELAPSE       13.80 TCPU       13.67
 CHARGE NORMALIZATION FACTOR   1.00000000
 TOTAL ATOMIC CHARGES:
  17.0000000  17.0000000
 TTTTTTTTTTTTTTTTTTTTTTTTTTTTTT MOQGAD      TELAPSE       13.81 TCPU       13.67
 TTTTTTTTTTTTTTTTTTTTTTTTTTTTTT SHELLX      TELAPSE       13.94 TCPU       13.81
 TTTTTTTTTTTTTTTTTTTTTTTTTTTTTT MONMO3      TELAPSE       13.94 TCPU       13.81
 NUMERICALLY INTEGRATED DENSITY     33.9999999086
 TTTTTTTTTTTTTTTTTTTTTTTTTTTTTT NUMDFT      TELAPSE       14.73 TCPU       14.59
 CYC  15 ETOT(AU) -7.959056664687E+02 DETOT -1.48E-05 tst  1.20E-05 PX  1.43E-03
 TTTTTTTTTTTTTTTTTTTTTTTTTTTTTT FDIK        TELAPSE       14.73 TCPU       14.59
 INSULATING STATE - TOP OF VALENCE BANDS (A.U.) -1.3267874E+00
 TTTTTTTTTTTTTTTTTTTTTTTTTTTTTT PDIG        TELAPSE       14.73 TCPU       14.59
 CHARGE NORMALIZATION FACTOR   1.00000000
 TOTAL ATOMIC CHARGES:
  17.0000000  17.0000000
 TTTTTTTTTTTTTTTTTTTTTTTTTTTTTT MOQGAD      TELAPSE       14.73 TCPU       14.60
 TTTTTTTTTTTTTTTTTTTTTTTTTTTTTT SHELLX      TELAPSE       14.86 TCPU       14.73
 TTTTTTTTTTTTTTTTTTTTTTTTTTTTTT MONMO3      TELAPSE       14.86 TCPU       14.73
 NUMERICALLY INTEGRATED DENSITY     33.9999999087
 TTTTTTTTTTTTTTTTTTTTTTTTTTTTTT NUMDFT      TELAPSE       15.66 TCPU       15.51
 CYC  16 ETOT(AU) -7.959056756600E+02 DETOT -9.19E-06 tst  6.58E-06 PX  1.15E-03
 TTTTTTTTTTTTTTTTTTTTTTTTTTTTTT FDIK        TELAPSE       15.66 TCPU       15.51
 INSULATING STATE - TOP OF VALENCE BANDS (A.U.) -1.3262947E+00
 TTTTTTTTTTTTTTTTTTTTTTTTTTTTTT PDIG        TELAPSE       15.66 TCPU       15.51
 CHARGE NORMALIZATION FACTOR   1.00000000
 TOTAL ATOMIC CHARGES:
  17.0000000  17.0000000
 TTTTTTTTTTTTTTTTTTTTTTTTTTTTTT MOQGAD      TELAPSE       15.66 TCPU       15.51
 TTTTTTTTTTTTTTTTTTTTTTTTTTTTTT SHELLX      TELAPSE       15.79 TCPU       15.63
 TTTTTTTTTTTTTTTTTTTTTTTTTTTTTT MONMO3      TELAPSE       15.80 TCPU       15.63
 NUMERICALLY INTEGRATED DENSITY     33.9999999087
 TTTTTTTTTTTTTTTTTTTTTTTTTTTTTT NUMDFT      TELAPSE       16.57 TCPU       16.40
 CYC  17 ETOT(AU) -7.959056869319E+02 DETOT -1.13E-05 tst  3.42E-06 PX  9.12E-04
 TTTTTTTTTTTTTTTTTTTTTTTTTTTTTT FDIK        TELAPSE       16.57 TCPU       16.40
 INSULATING STATE - TOP OF VALENCE BANDS (A.U.) -1.3258475E+00
 TTTTTTTTTTTTTTTTTTTTTTTTTTTTTT PDIG        TELAPSE       16.57 TCPU       16.40
 CHARGE NORMALIZATION FACTOR   1.00000000
 TOTAL ATOMIC CHARGES:
  17.0000000  17.0000000
 TTTTTTTTTTTTTTTTTTTTTTTTTTTTTT MOQGAD      TELAPSE       16.58 TCPU       16.40
 TTTTTTTTTTTTTTTTTTTTTTTTTTTTTT SHELLX      TELAPSE       16.71 TCPU       16.52
 TTTTTTTTTTTTTTTTTTTTTTTTTTTTTT MONMO3      TELAPSE       16.71 TCPU       16.54
 NUMERICALLY INTEGRATED DENSITY     33.9999999086
 TTTTTTTTTTTTTTTTTTTTTTTTTTTTTT NUMDFT      TELAPSE       17.49 TCPU       17.30
 CYC  18 ETOT(AU) -7.959057016478E+02 DETOT -1.47E-05 tst  1.66E-06 PX  7.14E-04
 TTTTTTTTTTTTTTTTTTTTTTTTTTTTTT FDIK        TELAPSE       17.49 TCPU       17.30
 INSULATING STATE - TOP OF VALENCE BANDS (A.U.) -1.3254544E+00
 TTTTTTTTTTTTTTTTTTTTTTTTTTTTTT PDIG        TELAPSE       17.49 TCPU       17.30
 CHARGE NORMALIZATION FACTOR   1.00000000
 TOTAL ATOMIC CHARGES:
  17.0000000  17.0000000
 TTTTTTTTTTTTTTTTTTTTTTTTTTTTTT MOQGAD      TELAPSE       17.49 TCPU       17.32
 TTTTTTTTTTTTTTTTTTTTTTTTTTTTTT SHELLX      TELAPSE       17.62 TCPU       17.44
 TTTTTTTTTTTTTTTTTTTTTTTTTTTTTT MONMO3      TELAPSE       17.63 TCPU       17.44
 NUMERICALLY INTEGRATED DENSITY     33.9999999086
 TTTTTTTTTTTTTTTTTTTTTTTTTTTTTT NUMDFT      TELAPSE       18.41 TCPU       18.22
 CYC  19 ETOT(AU) -7.959057185472E+02 DETOT -1.69E-05 tst  7.54E-07 PX  5.53E-04
 TTTTTTTTTTTTTTTTTTTTTTTTTTTTTT FDIK        TELAPSE       18.41 TCPU       18.22
 INSULATING STATE - TOP OF VALENCE BANDS (A.U.) -1.3251191E+00
 TTTTTTTTTTTTTTTTTTTTTTTTTTTTTT PDIG        TELAPSE       18.41 TCPU       18.24
 CHARGE NORMALIZATION FACTOR   1.00000000
 TOTAL ATOMIC CHARGES:
  17.0000000  17.0000000
 TTTTTTTTTTTTTTTTTTTTTTTTTTTTTT MOQGAD      TELAPSE       18.42 TCPU       18.24
 TTTTTTTTTTTTTTTTTTTTTTTTTTTTTT SHELLX      TELAPSE       18.55 TCPU       18.36
 TTTTTTTTTTTTTTTTTTTTTTTTTTTTTT MONMO3      TELAPSE       18.55 TCPU       18.36
 NUMERICALLY INTEGRATED DENSITY     33.9999999086
 TTTTTTTTTTTTTTTTTTTTTTTTTTTTTT NUMDFT      TELAPSE       19.33 TCPU       19.14
 CYC  20 ETOT(AU) -7.959057357291E+02 DETOT -1.72E-05 tst  8.25E-07 PX  6.92E-04
 TTTTTTTTTTTTTTTTTTTTTTTTTTTTTT FDIK        TELAPSE       19.33 TCPU       19.14
 INSULATING STATE - TOP OF VALENCE BANDS (A.U.) -1.3248412E+00
 TTTTTTTTTTTTTTTTTTTTTTTTTTTTTT PDIG        TELAPSE       19.33 TCPU       19.14
 CHARGE NORMALIZATION FACTOR   1.00000000
 TOTAL ATOMIC CHARGES:
  17.0000000  17.0000000
 TTTTTTTTTTTTTTTTTTTTTTTTTTTTTT MOQGAD      TELAPSE       19.34 TCPU       19.16
 TTTTTTTTTTTTTTTTTTTTTTTTTTTTTT SHELLX      TELAPSE       19.46 TCPU       19.28
 TTTTTTTTTTTTTTTTTTTTTTTTTTTTTT MONMO3      TELAPSE       19.46 TCPU       19.28
 NUMERICALLY INTEGRATED DENSITY     33.9999999085
 TTTTTTTTTTTTTTTTTTTTTTTTTTTTTT NUMDFT      TELAPSE       20.25 TCPU       20.06
 CYC  21 ETOT(AU) -7.959057516175E+02 DETOT -1.59E-05 tst  9.87E-07 PX  7.86E-04
 TTTTTTTTTTTTTTTTTTTTTTTTTTTTTT FDIK        TELAPSE       20.25 TCPU       20.06
 INSULATING STATE - TOP OF VALENCE BANDS (A.U.) -1.3246178E+00
 TTTTTTTTTTTTTTTTTTTTTTTTTTTTTT PDIG        TELAPSE       20.25 TCPU       20.06
 CHARGE NORMALIZATION FACTOR   1.00000000
 TOTAL ATOMIC CHARGES:
  17.0000000  17.0000000
 TTTTTTTTTTTTTTTTTTTTTTTTTTTTTT MOQGAD      TELAPSE       20.26 TCPU       20.08
 TTTTTTTTTTTTTTTTTTTTTTTTTTTTTT SHELLX      TELAPSE       20.38 TCPU       20.20
 TTTTTTTTTTTTTTTTTTTTTTTTTTTTTT MONMO3      TELAPSE       20.39 TCPU       20.20
 NUMERICALLY INTEGRATED DENSITY     33.9999999085
 TTTTTTTTTTTTTTTTTTTTTTTTTTTTTT NUMDFT      TELAPSE       21.19 TCPU       21.00
 CYC  22 ETOT(AU) -7.959057652386E+02 DETOT -1.36E-05 tst  1.03E-06 PX  8.25E-04
 TTTTTTTTTTTTTTTTTTTTTTTTTTTTTT FDIK        TELAPSE       21.19 TCPU       21.00
 INSULATING STATE - TOP OF VALENCE BANDS (A.U.) -1.3244439E+00
 TTTTTTTTTTTTTTTTTTTTTTTTTTTTTT PDIG        TELAPSE       21.19 TCPU       21.00
 CHARGE NORMALIZATION FACTOR   1.00000000
 TOTAL ATOMIC CHARGES:
  17.0000000  17.0000000
 TTTTTTTTTTTTTTTTTTTTTTTTTTTTTT MOQGAD      TELAPSE       21.19 TCPU       21.01
 TTTTTTTTTTTTTTTTTTTTTTTTTTTTTT SHELLX      TELAPSE       21.32 TCPU       21.12
 TTTTTTTTTTTTTTTTTTTTTTTTTTTTTT MONMO3      TELAPSE       21.32 TCPU       21.12
 NUMERICALLY INTEGRATED DENSITY     33.9999999084
 TTTTTTTTTTTTTTTTTTTTTTTTTTTTTT NUMDFT      TELAPSE       22.12 TCPU       21.92
 CYC  23 ETOT(AU) -7.959057762449E+02 DETOT -1.10E-05 tst  9.98E-07 PX  8.21E-04
 TTTTTTTTTTTTTTTTTTTTTTTTTTTTTT FDIK        TELAPSE       22.12 TCPU       21.92
 INSULATING STATE - TOP OF VALENCE BANDS (A.U.) -1.3243137E+00
 TTTTTTTTTTTTTTTTTTTTTTTTTTTTTT PDIG        TELAPSE       22.12 TCPU       21.92
 CHARGE NORMALIZATION FACTOR   1.00000000
 TOTAL ATOMIC CHARGES:
  17.0000000  17.0000000
 TTTTTTTTTTTTTTTTTTTTTTTTTTTTTT MOQGAD      TELAPSE       22.12 TCPU       21.92
 TTTTTTTTTTTTTTTTTTTTTTTTTTTTTT SHELLX      TELAPSE       22.26 TCPU       22.06
 TTTTTTTTTTTTTTTTTTTTTTTTTTTTTT MONMO3      TELAPSE       22.26 TCPU       22.06
 NUMERICALLY INTEGRATED DENSITY     33.9999999083
 TTTTTTTTTTTTTTTTTTTTTTTTTTTTTT NUMDFT      TELAPSE       23.04 TCPU       22.84
 CYC  24 ETOT(AU) -7.959057846915E+02 DETOT -8.45E-06 tst  9.34E-07 PX  7.85E-04
 TTTTTTTTTTTTTTTTTTTTTTTTTTTTTT FDIK        TELAPSE       23.04 TCPU       22.84
 INSULATING STATE - TOP OF VALENCE BANDS (A.U.) -1.3242209E+00
 TTTTTTTTTTTTTTTTTTTTTTTTTTTTTT PDIG        TELAPSE       23.04 TCPU       22.84
 CHARGE NORMALIZATION FACTOR   1.00000000
 TOTAL ATOMIC CHARGES:
  17.0000000  17.0000000
 TTTTTTTTTTTTTTTTTTTTTTTTTTTTTT MOQGAD      TELAPSE       23.05 TCPU       22.85
 TTTTTTTTTTTTTTTTTTTTTTTTTTTTTT SHELLX      TELAPSE       23.18 TCPU       22.98
 TTTTTTTTTTTTTTTTTTTTTTTTTTTTTT MONMO3      TELAPSE       23.18 TCPU       22.98
 NUMERICALLY INTEGRATED DENSITY     33.9999999083
 TTTTTTTTTTTTTTTTTTTTTTTTTTTTTT NUMDFT      TELAPSE       23.95 TCPU       23.76
 CYC  25 ETOT(AU) -7.959057909331E+02 DETOT -6.24E-06 tst  8.11E-07 PX  7.28E-04
 TTTTTTTTTTTTTTTTTTTTTTTTTTTTTT FDIK        TELAPSE       23.96 TCPU       23.76
 INSULATING STATE - TOP OF VALENCE BANDS (A.U.) -1.3241591E+00
 TTTTTTTTTTTTTTTTTTTTTTTTTTTTTT PDIG        TELAPSE       23.96 TCPU       23.76
 CHARGE NORMALIZATION FACTOR   1.00000000
 TOTAL ATOMIC CHARGES:
  17.0000000  17.0000000
 TTTTTTTTTTTTTTTTTTTTTTTTTTTTTT MOQGAD      TELAPSE       23.96 TCPU       23.76
 TTTTTTTTTTTTTTTTTTTTTTTTTTTTTT SHELLX      TELAPSE       24.09 TCPU       23.88
 TTTTTTTTTTTTTTTTTTTTTTTTTTTTTT MONMO3      TELAPSE       24.09 TCPU       23.90
 NUMERICALLY INTEGRATED DENSITY     33.9999999083
 TTTTTTTTTTTTTTTTTTTTTTTTTTTTTT NUMDFT      TELAPSE       24.88 TCPU       24.68
 CYC  26 ETOT(AU) -7.959057953839E+02 DETOT -4.45E-06 tst  6.64E-07 PX  6.58E-04
 TTTTTTTTTTTTTTTTTTTTTTTTTTTTTT FDIK        TELAPSE       24.88 TCPU       24.68
 INSULATING STATE - TOP OF VALENCE BANDS (A.U.) -1.3241224E+00
 TTTTTTTTTTTTTTTTTTTTTTTTTTTTTT PDIG        TELAPSE       24.89 TCPU       24.69
 CHARGE NORMALIZATION FACTOR   1.00000000
 TOTAL ATOMIC CHARGES:
  17.0000000  17.0000000
 TTTTTTTTTTTTTTTTTTTTTTTTTTTTTT MOQGAD      TELAPSE       24.89 TCPU       24.69
 TTTTTTTTTTTTTTTTTTTTTTTTTTTTTT SHELLX      TELAPSE       25.02 TCPU       24.82
 TTTTTTTTTTTTTTTTTTTTTTTTTTTTTT MONMO3      TELAPSE       25.02 TCPU       24.82
 NUMERICALLY INTEGRATED DENSITY     33.9999999082
 TTTTTTTTTTTTTTTTTTTTTTTTTTTTTT NUMDFT      TELAPSE       25.82 TCPU       25.60
 CYC  27 ETOT(AU) -7.959057984851E+02 DETOT -3.10E-06 tst  5.19E-07 PX  5.81E-04
 TTTTTTTTTTTTTTTTTTTTTTTTTTTTTT FDIK        TELAPSE       25.82 TCPU       25.60
 INSULATING STATE - TOP OF VALENCE BANDS (A.U.) -1.3241053E+00
 TTTTTTTTTTTTTTTTTTTTTTTTTTTTTT PDIG        TELAPSE       25.82 TCPU       25.60
 CHARGE NORMALIZATION FACTOR   1.00000000
 TOTAL ATOMIC CHARGES:
  17.0000000  17.0000000
 TTTTTTTTTTTTTTTTTTTTTTTTTTTTTT MOQGAD      TELAPSE       25.83 TCPU       25.62
 TTTTTTTTTTTTTTTTTTTTTTTTTTTTTT SHELLX      TELAPSE       25.95 TCPU       25.74
 TTTTTTTTTTTTTTTTTTTTTTTTTTTTTT MONMO3      TELAPSE       25.96 TCPU       25.74
 NUMERICALLY INTEGRATED DENSITY     33.9999999082
 TTTTTTTTTTTTTTTTTTTTTTTTTTTTTT NUMDFT      TELAPSE       26.74 TCPU       26.52
 CYC  28 ETOT(AU) -7.959058006178E+02 DETOT -2.13E-06 tst  3.88E-07 PX  5.03E-04
 TTTTTTTTTTTTTTTTTTTTTTTTTTTTTT FDIK        TELAPSE       26.74 TCPU       26.54
 INSULATING STATE - TOP OF VALENCE BANDS (A.U.) -1.3241030E+00
 TTTTTTTTTTTTTTTTTTTTTTTTTTTTTT PDIG        TELAPSE       26.74 TCPU       26.54
 CHARGE NORMALIZATION FACTOR   1.00000000
 TOTAL ATOMIC CHARGES:
  17.0000000  17.0000000
 TTTTTTTTTTTTTTTTTTTTTTTTTTTTTT MOQGAD      TELAPSE       26.75 TCPU       26.54
 TTTTTTTTTTTTTTTTTTTTTTTTTTTTTT SHELLX      TELAPSE       26.88 TCPU       26.66
 TTTTTTTTTTTTTTTTTTTTTTTTTTTTTT MONMO3      TELAPSE       26.88 TCPU       26.66
 NUMERICALLY INTEGRATED DENSITY     33.9999999082
 TTTTTTTTTTTTTTTTTTTTTTTTTTTTTT NUMDFT      TELAPSE       27.67 TCPU       27.46
 CYC  29 ETOT(AU) -7.959058020831E+02 DETOT -1.47E-06 tst  2.80E-07 PX  4.27E-04
 TTTTTTTTTTTTTTTTTTTTTTTTTTTTTT FDIK        TELAPSE       27.68 TCPU       27.46
 INSULATING STATE - TOP OF VALENCE BANDS (A.U.) -1.3241114E+00
 TTTTTTTTTTTTTTTTTTTTTTTTTTTTTT PDIG        TELAPSE       27.68 TCPU       27.46
 CHARGE NORMALIZATION FACTOR   1.00000000
 TOTAL ATOMIC CHARGES:
  17.0000000  17.0000000
 TTTTTTTTTTTTTTTTTTTTTTTTTTTTTT MOQGAD      TELAPSE       27.68 TCPU       27.47
 TTTTTTTTTTTTTTTTTTTTTTTTTTTTTT SHELLX      TELAPSE       27.81 TCPU       27.60
 TTTTTTTTTTTTTTTTTTTTTTTTTTTTTT MONMO3      TELAPSE       27.81 TCPU       27.60
 NUMERICALLY INTEGRATED DENSITY     33.9999999081
 TTTTTTTTTTTTTTTTTTTTTTTTTTTTTT NUMDFT      TELAPSE       28.60 TCPU       28.36
 CYC  30 ETOT(AU) -7.959058031051E+02 DETOT -1.02E-06 tst  1.96E-07 PX  3.56E-04
 TTTTTTTTTTTTTTTTTTTTTTTTTTTTTT FDIK        TELAPSE       28.60 TCPU       28.36
 INSULATING STATE - TOP OF VALENCE BANDS (A.U.) -1.3241270E+00
 TTTTTTTTTTTTTTTTTTTTTTTTTTTTTT PDIG        TELAPSE       28.60 TCPU       28.36
 CHARGE NORMALIZATION FACTOR   1.00000000
 TOTAL ATOMIC CHARGES:
  17.0000000  17.0000000
 TTTTTTTTTTTTTTTTTTTTTTTTTTTTTT MOQGAD      TELAPSE       28.60 TCPU       28.38
 TTTTTTTTTTTTTTTTTTTTTTTTTTTTTT SHELLX      TELAPSE       28.73 TCPU       28.50
 TTTTTTTTTTTTTTTTTTTTTTTTTTTTTT MONMO3      TELAPSE       28.74 TCPU       28.50
 NUMERICALLY INTEGRATED DENSITY     33.9999999081
 TTTTTTTTTTTTTTTTTTTTTTTTTTTTTT NUMDFT      TELAPSE       29.54 TCPU       29.30
 CYC  31 ETOT(AU) -7.959058038380E+02 DETOT -7.33E-07 tst  1.33E-07 PX  2.91E-04
 TTTTTTTTTTTTTTTTTTTTTTTTTTTTTT FDIK        TELAPSE       29.54 TCPU       29.30
 INSULATING STATE - TOP OF VALENCE BANDS (A.U.) -1.3241470E+00
 TTTTTTTTTTTTTTTTTTTTTTTTTTTTTT PDIG        TELAPSE       29.54 TCPU       29.30
 CHARGE NORMALIZATION FACTOR   1.00000000
 TOTAL ATOMIC CHARGES:
  17.0000000  17.0000000
 TTTTTTTTTTTTTTTTTTTTTTTTTTTTTT MOQGAD      TELAPSE       29.55 TCPU       29.30
 TTTTTTTTTTTTTTTTTTTTTTTTTTTTTT SHELLX      TELAPSE       29.68 TCPU       29.42
 TTTTTTTTTTTTTTTTTTTTTTTTTTTTTT MONMO3      TELAPSE       29.68 TCPU       29.44
 NUMERICALLY INTEGRATED DENSITY     33.9999999081
 TTTTTTTTTTTTTTTTTTTTTTTTTTTTTT NUMDFT      TELAPSE       30.46 TCPU       30.22
 CYC  32 ETOT(AU) -7.959058043831E+02 DETOT -5.45E-07 tst  8.81E-08 PX  2.34E-04
 TTTTTTTTTTTTTTTTTTTTTTTTTTTTTT FDIK        TELAPSE       30.46 TCPU       30.22
 INSULATING STATE - TOP OF VALENCE BANDS (A.U.) -1.3241693E+00
 TTTTTTTTTTTTTTTTTTTTTTTTTTTTTT PDIG        TELAPSE       30.46 TCPU       30.22
 CHARGE NORMALIZATION FACTOR   1.00000000
 TOTAL ATOMIC CHARGES:
  17.0000000  17.0000000
 TTTTTTTTTTTTTTTTTTTTTTTTTTTTTT MOQGAD      TELAPSE       30.47 TCPU       30.22
 TTTTTTTTTTTTTTTTTTTTTTTTTTTTTT SHELLX      TELAPSE       30.60 TCPU       30.36
 TTTTTTTTTTTTTTTTTTTTTTTTTTTTTT MONMO3      TELAPSE       30.60 TCPU       30.36
 NUMERICALLY INTEGRATED DENSITY     33.9999999081
 TTTTTTTTTTTTTTTTTTTTTTTTTTTTTT NUMDFT      TELAPSE       31.39 TCPU       31.14
 CYC  33 ETOT(AU) -7.959058048026E+02 DETOT -4.19E-07 tst  5.70E-08 PX  1.85E-04
 TTTTTTTTTTTTTTTTTTTTTTTTTTTTTT FDIK        TELAPSE       31.39 TCPU       31.14
 INSULATING STATE - TOP OF VALENCE BANDS (A.U.) -1.3241922E+00
 TTTTTTTTTTTTTTTTTTTTTTTTTTTTTT PDIG        TELAPSE       31.39 TCPU       31.14
 CHARGE NORMALIZATION FACTOR   1.00000000
 TOTAL ATOMIC CHARGES:
  17.0000000  17.0000000
 TTTTTTTTTTTTTTTTTTTTTTTTTTTTTT MOQGAD      TELAPSE       31.39 TCPU       31.14
 TTTTTTTTTTTTTTTTTTTTTTTTTTTTTT SHELLX      TELAPSE       31.52 TCPU       31.28
 TTTTTTTTTTTTTTTTTTTTTTTTTTTTTT MONMO3      TELAPSE       31.52 TCPU       31.28
 NUMERICALLY INTEGRATED DENSITY     33.9999999081
 TTTTTTTTTTTTTTTTTTTTTTTTTTTTTT NUMDFT      TELAPSE       32.31 TCPU       32.07
 CYC  34 ETOT(AU) -7.959058051349E+02 DETOT -3.32E-07 tst  3.62E-08 PX  1.44E-04
 TTTTTTTTTTTTTTTTTTTTTTTTTTTTTT FDIK        TELAPSE       32.32 TCPU       32.07
 INSULATING STATE - TOP OF VALENCE BANDS (A.U.) -1.3242145E+00
 TTTTTTTTTTTTTTTTTTTTTTTTTTTTTT PDIG        TELAPSE       32.32 TCPU       32.07
 CHARGE NORMALIZATION FACTOR   1.00000000
 TOTAL ATOMIC CHARGES:
  17.0000000  17.0000000
 TTTTTTTTTTTTTTTTTTTTTTTTTTTTTT MOQGAD      TELAPSE       32.32 TCPU       32.07
 TTTTTTTTTTTTTTTTTTTTTTTTTTTTTT SHELLX      TELAPSE       32.45 TCPU       32.20
 TTTTTTTTTTTTTTTTTTTTTTTTTTTTTT MONMO3      TELAPSE       32.45 TCPU       32.20
 NUMERICALLY INTEGRATED DENSITY     33.9999999081
 TTTTTTTTTTTTTTTTTTTTTTTTTTTTTT NUMDFT      TELAPSE       33.25 TCPU       32.99
 CYC  35 ETOT(AU) -7.959058054031E+02 DETOT -2.68E-07 tst  2.27E-08 PX  1.09E-04
 TTTTTTTTTTTTTTTTTTTTTTTTTTTTTT FDIK        TELAPSE       33.25 TCPU       33.01
 INSULATING STATE - TOP OF VALENCE BANDS (A.U.) -1.3242355E+00
 TTTTTTTTTTTTTTTTTTTTTTTTTTTTTT PDIG        TELAPSE       33.25 TCPU       33.01
 CHARGE NORMALIZATION FACTOR   1.00000000
 TOTAL ATOMIC CHARGES:
  17.0000000  17.0000000
 TTTTTTTTTTTTTTTTTTTTTTTTTTTTTT MOQGAD      TELAPSE       33.25 TCPU       33.01
 TTTTTTTTTTTTTTTTTTTTTTTTTTTTTT SHELLX      TELAPSE       33.38 TCPU       33.13
 TTTTTTTTTTTTTTTTTTTTTTTTTTTTTT MONMO3      TELAPSE       33.38 TCPU       33.13
 NUMERICALLY INTEGRATED DENSITY     33.9999999081
 TTTTTTTTTTTTTTTTTTTTTTTTTTTTTT NUMDFT      TELAPSE       34.22 TCPU       33.98
 CYC  36 ETOT(AU) -7.959058056206E+02 DETOT -2.18E-07 tst  1.58E-08 PX  8.31E-05
 TTTTTTTTTTTTTTTTTTTTTTTTTTTTTT FDIK        TELAPSE       34.22 TCPU       33.98
 INSULATING STATE - TOP OF VALENCE BANDS (A.U.) -1.3242546E+00
 TTTTTTTTTTTTTTTTTTTTTTTTTTTTTT PDIG        TELAPSE       34.22 TCPU       33.98
 CHARGE NORMALIZATION FACTOR   1.00000000
 TOTAL ATOMIC CHARGES:
  17.0000000  17.0000000
 TTTTTTTTTTTTTTTTTTTTTTTTTTTTTT MOQGAD      TELAPSE       34.22 TCPU       33.98
 TTTTTTTTTTTTTTTTTTTTTTTTTTTTTT SHELLX      TELAPSE       34.35 TCPU       34.10
 TTTTTTTTTTTTTTTTTTTTTTTTTTTTTT MONMO3      TELAPSE       34.35 TCPU       34.10
 NUMERICALLY INTEGRATED DENSITY     33.9999999081
 TTTTTTTTTTTTTTTTTTTTTTTTTTTTTT NUMDFT      TELAPSE       35.15 TCPU       34.88
 CYC  37 ETOT(AU) -7.959058057968E+02 DETOT -1.76E-07 tst  1.45E-08 PX  6.91E-05
 TTTTTTTTTTTTTTTTTTTTTTTTTTTTTT FDIK        TELAPSE       35.15 TCPU       34.90
 INSULATING STATE - TOP OF VALENCE BANDS (A.U.) -1.3242715E+00
 TTTTTTTTTTTTTTTTTTTTTTTTTTTTTT PDIG        TELAPSE       35.15 TCPU       34.90
 CHARGE NORMALIZATION FACTOR   1.00000000
 TOTAL ATOMIC CHARGES:
  17.0000000  17.0000000
 TTTTTTTTTTTTTTTTTTTTTTTTTTTTTT MOQGAD      TELAPSE       35.16 TCPU       34.90
 TTTTTTTTTTTTTTTTTTTTTTTTTTTTTT SHELLX      TELAPSE       35.29 TCPU       35.02
 TTTTTTTTTTTTTTTTTTTTTTTTTTTTTT MONMO3      TELAPSE       35.29 TCPU       35.02
 NUMERICALLY INTEGRATED DENSITY     33.9999999081
 TTTTTTTTTTTTTTTTTTTTTTTTTTTTTT NUMDFT      TELAPSE       36.09 TCPU       35.82
 CYC  38 ETOT(AU) -7.959058059382E+02 DETOT -1.41E-07 tst  1.28E-08 PX  5.75E-05
 TTTTTTTTTTTTTTTTTTTTTTTTTTTTTT FDIK        TELAPSE       36.09 TCPU       35.82
 INSULATING STATE - TOP OF VALENCE BANDS (A.U.) -1.3242861E+00
 TTTTTTTTTTTTTTTTTTTTTTTTTTTTTT PDIG        TELAPSE       36.09 TCPU       35.82
 CHARGE NORMALIZATION FACTOR   1.00000000
 TOTAL ATOMIC CHARGES:
  17.0000000  17.0000000
 TTTTTTTTTTTTTTTTTTTTTTTTTTTTTT MOQGAD      TELAPSE       36.09 TCPU       35.83
 TTTTTTTTTTTTTTTTTTTTTTTTTTTTTT SHELLX      TELAPSE       36.22 TCPU       35.96
 TTTTTTTTTTTTTTTTTTTTTTTTTTTTTT MONMO3      TELAPSE       36.22 TCPU       35.96
 NUMERICALLY INTEGRATED DENSITY     33.9999999081
 TTTTTTTTTTTTTTTTTTTTTTTTTTTTTT NUMDFT      TELAPSE       37.02 TCPU       36.74
 CYC  39 ETOT(AU) -7.959058060505E+02 DETOT -1.12E-07 tst  1.10E-08 PX  5.10E-05
 TTTTTTTTTTTTTTTTTTTTTTTTTTTTTT FDIK        TELAPSE       37.02 TCPU       36.74
 INSULATING STATE - TOP OF VALENCE BANDS (A.U.) -1.3242986E+00
 TTTTTTTTTTTTTTTTTTTTTTTTTTTTTT PDIG        TELAPSE       37.02 TCPU       36.74
 CHARGE NORMALIZATION FACTOR   1.00000000
 TOTAL ATOMIC CHARGES:
  17.0000000  17.0000000
 TTTTTTTTTTTTTTTTTTTTTTTTTTTTTT MOQGAD      TELAPSE       37.03 TCPU       36.75
 TTTTTTTTTTTTTTTTTTTTTTTTTTTTTT SHELLX      TELAPSE       37.16 TCPU       36.88
 TTTTTTTTTTTTTTTTTTTTTTTTTTTTTT MONMO3      TELAPSE       37.16 TCPU       36.88
 NUMERICALLY INTEGRATED DENSITY     33.9999999081
 TTTTTTTTTTTTTTTTTTTTTTTTTTTTTT NUMDFT      TELAPSE       37.96 TCPU       37.66
 CYC  40 ETOT(AU) -7.959058061386E+02 DETOT -8.80E-08 tst  9.20E-09 PX  4.88E-05
 TTTTTTTTTTTTTTTTTTTTTTTTTTTTTT FDIK        TELAPSE       37.96 TCPU       37.66
 INSULATING STATE - TOP OF VALENCE BANDS (A.U.) -1.3243091E+00
 TTTTTTTTTTTTTTTTTTTTTTTTTTTTTT PDIG        TELAPSE       37.96 TCPU       37.66
 CHARGE NORMALIZATION FACTOR   1.00000000
 TOTAL ATOMIC CHARGES:
  17.0000000  17.0000000
 TTTTTTTTTTTTTTTTTTTTTTTTTTTTTT MOQGAD      TELAPSE       37.96 TCPU       37.67
 TTTTTTTTTTTTTTTTTTTTTTTTTTTTTT SHELLX      TELAPSE       38.10 TCPU       37.80
 +++ ENERGIES IN A.U. +++
 ::: EXT EL-POLE                                   2.3667321156823E+01
 ::: EXT EL-SPHEROPOLE                             0.0000000000000E+00
 ::: BIELET ZONE E-E                               4.0661140876358E+02
 ::: TOTAL E-E                                     4.3027872992041E+02
 ::: TOTAL E-N + N-E                              -2.0284224250117E+03
 ::: TOTAL N-N                                     5.9353700587027E+01
 ::: KINETIC ENERGY                                7.9427281827437E+02
 ::: PSEUDO TOTAL   ENERGY                        -7.4451717622990E+02
 ::: VIRIAL COEFFICIENT                            1.0323342640790E+00
 TTTTTTTTTTTTTTTTTTTTTTTTTTTTTT MONMO3      TELAPSE       38.10 TCPU       37.80
 NUMERICALLY INTEGRATED DENSITY     33.9999999081
 TTTTTTTTTTTTTTTTTTTTTTTTTTTTTT NUMDFT      TELAPSE       38.91 TCPU       38.63
 CYC  41 ETOT(AU) -7.959058062068E+02 DETOT -6.83E-08 tst  7.51E-09 PX  4.88E-05

 == SCF ENDED - CONVERGENCE ON ENERGY      E(AU) -7.9590580620682E+02 CYCLES  41


 ENERGY EXPRESSION=HARTREE+FOCK EXCH*0.00000+(PBE   EXCH)*1.00000+PBE   CORR


 TOTAL ENERGY(DFT)(AU)( 41) -7.9590580620682E+02 DE-6.8E-08 tst 7.5E-09
 TTTTTTTTTTTTTTTTTTTTTTTTTTTTTT EDFT        TELAPSE       38.91 TCPU       38.63

 *******************************************************************************
 *                             FORCE CALCULATION                               *
 *******************************************************************************

 TTTTTTTTTTTTTTTTTTTTTTTTTTTTTT NUMDFG      TELAPSE       43.14 TCPU       42.82
 INFORMATION **** EXCPOG **** EXCH. BIPO BUFFER LENGTH (WORDS) =         0
 INFORMATION **** GENPOG **** BIPO BUFFER LENGTH (WORDS) =      7400
 TTTTTTTTTTTTTTTTTTTTTTTTTTTTTT SHELXG      TELAPSE       43.62 TCPU       43.23

 CARTESIAN FORCES (ANALYTICAL)
   ATOM                     X                   Y                   Z
   1  16            -3.678324374700E-15  4.004505305171E-15 -1.207526746025E-04
   2  16            -1.455195079416E-14 -1.620472139265E-14  1.207526746825E-04

 RESULTANT FORCE    -1.823027516886E-14 -1.220021608748E-14  7.993605777301E-14

 SYMMETRY ALLOWED FORCES (ANALYTICAL) (DIRECTION, FORCE)

    1 -1.7077007E-04
 TTTTTTTTTTTTTTTTTTTTTTTTTTTTTT TOTGRA      TELAPSE       43.65 TCPU       43.26
 *******************************************************************************
 ATOMS IN THE ASYMMETRIC UNIT    2 - ATOMS IN THE UNIT CELL:    2
     ATOM          X(ANGSTROM)         Y(ANGSTROM)         Z(ANGSTROM)
 *******************************************************************************
   1 T  16 S     0.000000000000E+00  3.081487911020E-33 -4.162040360160E-01
   2 T  16 S     0.000000000000E+00  0.000000000000E+00  1.866204036016E+00

 T = ATOM BELONGING TO THE ASYMMETRIC UNIT
 INFORMATION **** opta001 **** GEOMETRY OUTPUT FILE
 CLASSICAL MODEL (SCHLEGEL) USED AS INITIAL HESSIAN MATRIX
 REFERENCE GEOMETRY DEFINED

 MAX GRADIENT      0.000171  THRESHOLD              0.000450 CONVERGED YES
 RMS GRADIENT      0.000171  THRESHOLD              0.000300 CONVERGED YES

 WARNINGWARNINGWARNINGWARNINGWARNINGWARNINGWARNINGWARNINGWARNINGWARNINGWARNING

 CONVERGENCE ON GRADIENTS SATISFIED AFTER THE FIRST OPTIMIZATION CYCLE
 GEOMETRY OPTIMIZATION STOPPED

 WARNINGWARNINGWARNINGWARNINGWARNINGWARNINGWARNINGWARNINGWARNINGWARNINGWARNING


 ******************************************************************
 * OPT END - CONVERGED * E(AU):  -7.959058062068E+02  POINTS    1 *
 ******************************************************************

 EIGENVECTORS IN FORTRAN UNIT 10

 NEIGHBORS OF THE NON-EQUIVALENT ATOMS

 N = NUMBER OF NEIGHBORS AT DISTANCE R
    ATOM  N     R/ANG      R/AU   NEIGHBORS (ATOM LABELS AND CELL INDICES)
   1 S    1     2.2824     4.3131   2 S    0 0 0

   2 S    1     2.2824     4.3131   1 S    0 0 0


 FINAL OPTIMIZED GEOMETRY - DIMENSIONALITY OF THE SYSTEM      0
 (NON PERIODIC DIRECTION: LATTICE PARAMETER FORMALLY SET TO 500)
 *******************************************************************************
 ATOMS IN THE ASYMMETRIC UNIT    2 - ATOMS IN THE UNIT CELL:    2
     ATOM          X(ANGSTROM)         Y(ANGSTROM)         Z(ANGSTROM)
 *******************************************************************************
   1 T  16 S     0.000000000000E+00  3.081487911020E-33 -4.162040360160E-01
   2 T  16 S     0.000000000000E+00  0.000000000000E+00  1.866204036016E+00

 T = ATOM BELONGING TO THE ASYMMETRIC UNIT
 INFORMATION **** fort.34 **** GEOMETRY OUTPUT FILE

 ****   1 SYMMOPS - TRANSLATORS IN FRACTIONARY UNITS
  V INV                   ROTATION MATRICES                       TRANSLATOR
  1  1  1.00  0.00  0.00  0.00  1.00  0.00  0.00  0.00  1.00    0.00  0.00  0.00
 TTTTTTTTTTTTTTTTTTTTTTTTTTTTTT END         TELAPSE       43.69 TCPU       43.31
 EEEEEEEEEE TERMINATION  DATE 20 01 2010 TIME 01:43:19.6
