/home/demichelis/cvs091222_last/bin/Linux-pgf_mpich2_1.0.7-pgf_clutwin_dyn/std/Pcrystal
/data/demichelis/tmp_p28415
script started on node14
TEST06 - zigzag C NANOTUBE - 6-21G, B3LYP, opt  nanorebuild from test05
SLAB
77
2.47
1
6  -0.33333333333 0.33333333333 0.
SWCNTRE
8 0
10 0
OPTGEOM
FULLOPTG
FINALRUN
4
END
END
6  3
2 0 6  2.  0.
2 1 2  4.  0.
2 1 1  0.  0.
99 0
END
DFT
B3LYP
XLGRID
END
TOLINTEG
8 8 8 8 16
SHRINK
10 10
SCFDIR
LEVSHIFT
10 1
FMIXING
30
TOLDEE
8
MAXCYCLES
100
END

Tue Feb  2 20:21:50 CET 2010
 PROCESS             0  OF             2  WORKING
 PROCESS             1  OF             2  WORKING

         
 *******************************************************************************
 *                                                                             *
 *                                CRYSTAL09                                    *
 *                              develop : 1.0                                  *
 *                      December 22, 2009 - parallel executable                *
 *                                                                             *
 *                                                                             *
 *                                                                             *
 *                              MAIN AUTHORS                                   *
 *                                                                             *
 *    R. DOVESI(1,10), V.R. SAUNDERS(2), C. ROETTI(1,10), R. ORLANDO (1,3),    *
 *  C.M. ZICOVICH-WILSON(1,4), F. PASCALE(5), B. CIVALLERI(1,10), K. DOLL(6),  *
 *       N.M. HARRISON(2,7), I. J. BUSH(2), Ph. D'ARCO(8), M. LLUNELL(9)       *
 *                                                                             *
 * (1) THEORETICAL CHEMISTRY GROUP - UNIVERSITA' DI TORINO - TORINO (ITALY)    *
 *      http://www.crystal.unito.it                                            *
 * (2) COMPUTATIONAL SCIENCE & ENGINEERING DEPARTMENT - CCLRC DARESBURY (UK)   *
 *     http://www.cse.clrc.ac.uk/cmg/CRYSTAL/                                  *
 * (3) UNIVERSITA' DEL PIEMONTE ORIENTALE - ALESSANDRIA (ITALY)                *
 * (4) UNIVERSIDAD AUTONOMA DEL ESTADO DE MORELOS - CUERNAVACA (MEXICO)        *
 * (5) UNIVERSITE' HENRI POINCARE' - NANCY (FRANCE)                            *
 * (6) MPI FUER FESTKOERPERFORSCHUNG - STUTTGART (GERMANY)                     *
 * (7) IMPERIAL COLLEGE - LONDON (UK)                                          *
 * (8) UNIVERSITE' PIERRE ET MARIE CURIE - PARIS (FRANCE)                      *
 * (9) UNIVERSIDAD DE BARCELONA - BARCELONA (SPAIN)                            *
 *(10) NIS - NANOSTRUCTURED INTERFACES AND SURFACES - TORINO (ITALY)           *
 *     http://www.crystal.unito.it                                             *
 *******************************************************************************
 EEEEEEEEEE STARTING  DATE 02 02 2010 TIME 20:21:54.8
 TEST06 - zigzag C NANOTUBE - 6-21G, B3LYP, opt  nanorebuild from test05         

 SLAB CALCULATION
 SYSTEM AND LATTICE                   :  HEXAGONAL   
 TWO-SIDED PLANE GROUP N. 77          :  P 6 M M         
 CORRESPONDING SPACE GROUP N. 183

 LATTICE PARAMETERS  (ANGSTROMS AND DEGREES) - CONVENTIONAL CELL
           A              B            GAMMA
        2.47000        2.47000      120.00000


 NUMBER OF IRREDUCIBLE ATOMS IN THE CONVENTIONAL CELL:    1

 INPUT COORDINATES

 ATOM AT. N.              COORDINATES
   1   6    -3.333333333300E-01  3.333333333300E-01  0.000000000000E+00

 *******************************************************************************

 << INFORMATION >>: FROM NOW ON, ALL COORDINATES REFER TO THE PRIMITIVE CELL

 *******************************************************************************

 LATTICE PARAMETERS  (ANGSTROMS AND DEGREES) - PRIMITIVE CELL
       A          B          C         ALPHA     BETA     GAMMA        VOLUME
    2.47000    2.47000  500.00000    90.00000  90.00000 120.00000      5.283534

 COORDINATES OF THE EQUIVALENT ATOMS 
 (X AND Y IN FRACTIONARY UNITS, Z IN ANGSTROMS)

 N. ATOM EQUIV AT. N.          X                  Y                  Z

   1   1   1    6 C    -3.33333333330E-01  3.33333333330E-01  0.00000000000E+00
   2   1   2    6 C     3.33333333330E-01 -3.33333333330E-01  0.00000000000E+00

 NUMBER OF SYMMETRY OPERATORS         :   12
 *******************************************************************************
 * GEOMETRY EDITING - INPUT COORDINATES ARE GIVEN IN ANGSTROM         
 *******************************************************************************

 GEOMETRY NOW FULLY CONSISTENT WITH THE GROUP
 *******************************************************************************
 *                                                                             *
 *                 CONSTRUCTION OF A NANOTUBE FROM A SLAB                      *
 *                                                                             *
 * Y. Noel, P. D'Arco, R. Demichelis, C.M. Zicovich-Wilson, R. Dovesi          *
 * On the use of symmetry in the ab initio quantum mechanical simulation of    *
 * nanotubes and related materials                                             *
 * J. Comput. Chem. (2010), DOI:10.1002/jcc.21370                              *
 *                                                                             *
 *******************************************************************************

 ********** SWCNT **********
 ROLL UP DIRECTION   10   0 SPECIFIED IN INPUT IS DEFINED FOR
 A GAMMA=60 DEG CELL REF. THESE INDICES ARE TRANSFORMED INTO   10   0 IN
 A GAMMA=120 DEG CELL REF.
 ***************************

 ********** SWCNT **********
 INPUT ROLL UP DIRECTION   10   0
 ***************************

 ooooooooooooooooooooooooooooooooooooooooooooooooooooooooooooooooooooooooooooooo
 ooo                NANOTUBE REBUILD: BUILDING A NANOTUBE                    ooo
 ooo    STARTING FROM THE STRUCTURE OF A PREVIOUSLY ROLLED NANOTUBE          ooo
 ooooooooooooooooooooooooooooooooooooooooooooooooooooooooooooooooooooooooooooooo
 o
 o REFERENCE NANOTUBE
 o ==================
 o REF NANOTUBE CHARACTERISTICS:
 o ROLL UP NANOTUBE VECTOR (R) EXPRESSED IN THE SLAB UNIT CELL BASIS A AND B
 o                             A   B
 o     R                       8   0
 o
 o LENGTHS IN ANGSTROM
 o     CYLINDER RADIUS                             3.145
 o     PERIOD ALONG THE CYLINDER AXIS, |L|         4.269
 o
 o ATOMS IN THE REF ASYMMETRIC UNIT:       2
 o ATOM            X/A              Y(ANGSTROM)        Z(ANGSTROM)       R(ANGS)
 o  ****************************************************************************
 o   1    6    0.66606574548E+00  0.31968074655E+01  0.13580100000E-06   3.197
 o   2    6    0.83393425452E+00  0.29534618448E+01 -0.12233640991E+01   3.197
 o *****************************************************************************
 o
 o  ACTUAL NANOTUBE
 o ===============
 o RATIO NEW/REF   1.250
 o
 o FROM NOW, ALL CHARACTERISTICS REFER TO THE NEW NANOTUBE (  10,   0)
 o
 o  ATOMS IN THE NEW ASYMMETRIC UNIT:      2
 o ATOM            X/A              Y(ANGSTROM)        Z(ANGSTROM)       R(ANGS)
 o  ****************************************************************************
 o   1    6    0.66606574548E+00  0.37880893375E+01  0.12308249792E+01   3.983
 o   2    6    0.83393425452E+00  0.39830295398E+01 -0.13536013552E-06   3.983
 o
 ooooooooooooooooooooooooooooooooooooooooooooooooooooooooooooooooooooooooooooooo

 DISTINCTIVE NANOTUBE VECTORS EXPRESSED IN THE SLAB UNIT CELL BASIS A AND B
                                                   A   B
       ROLL UP DIRECTION, R                       10   0
       HELICAL DIRECTION, H                        0   1
       CYLINDER AXIS, L                            1   2

 LENGTHS IN ANGSTROM
       CYLINDER RADIUS                             3.931
       PERIOD ALONG THE CYLINDER AXIS, |L|         4.269
       THICKNESS OF THE SLAB                       0.000

 NUMBER OF ATOMS                                      40
 CHIRAL ANGLE                                      0.000 DEG

 NANOTUBE SYMMETRY
       NUMBER OF SYMMETRY OPERATORS                   20
       NUMBER OF ATOMS IN THE ASYMMETRIC UNIT          2
       THE HELICAL OPERATOR:
         ORDER                                        20
         ANGLE                                 (   3/ 20)x2PI RAD => 54.000 DEG
         TRANSLATION                               1/  2 OF THE CYLINDER PERIOD
                                                   2.1343 ANGSTROM

 INFORMATION **** FULLOPTG **** FULL OPTIMIZATION (ATOMS AND CELL PARAMETERS)

 IMPORTANT INFORMATION:
 THE COORDINATE SYSTEM ADOPTED IN THE OPTIMIZATION HAS NOT IN
 GENERAL HOMOGENEOUS UNITS. FOR THIS REASON THE GRADIENT AND 
 HESSIAN MATRIX IN TERMS OF THIS SYSTEM ARE GIVEN WITHOUT
 UNITS. FOR MORE DETAILS SEE THE MANUAL.

 *******************************************************************************
 COMBINED CELL/ATOM OPTIMIZATION CONTROL

 INITIAL TRUST RADIUS         0.50000 MAXIMUM TRUST RADIUS               4.00000
 MAXIMUM GRADIENT COMPONENT   0.00045 MAXIMUM DISPLACEMENT COMPONENT     0.00180
 R.M.S. OF GRADIENT COMPONENT 0.00030 R.M.S. OF DISPLACEMENT COMPONENTS  0.00120
 THRESHOLD ON ENERGY CHANGE 0.100E-06 EXTRAPOLATING POLYNOMIAL ORDER           2
 MAXIMUM ALLOWED NUMBER OF STEPS  100 SORTING OF ENERGY POINTS:               NO
 ANALYTICAL  GRADIENT                 HESSIAN UPDATING                      BFGS
 STEP SIZE NUMERICAL GRADIENT 0.00100
 INITIAL HESSIAN MATRIX: SCHLEGEL MODEL 2
 *******************************************************************************


 GCALCO - MAX INDICES DIRECT LATTICE VECTOR 13998     0     0
 NO.OF VECTORS CREATED 6999 STARS 3500 RMAX 28224.45719 BOHR

 GEOMETRY FOR WAVE FUNCTION - DIMENSIONALITY OF THE SYSTEM    1
 (NON PERIODIC DIRECTION: LATTICE PARAMETER FORMALLY SET TO 500)
 *******************************************************************************
 LATTICE PARAMETERS (ANGSTROMS AND DEGREES) - BOHR = 0.5291772083 ANGSTROM
 PRIMITIVE CELL
         A              B              C           ALPHA      BETA       GAMMA 
     4.26857372   500.00000000   500.00000000    90.000000  90.000000  90.000000
 *******************************************************************************
 ATOMS IN THE ASYMMETRIC UNIT    2 - ATOMS IN THE UNIT CELL:   40
     ATOM              X/A             Y(ANGSTROM)         Z(ANGSTROM)   R(ANGS)
 *******************************************************************************
   1 T   6 C    -0.33393425452E+00  0.37880893375E+01  0.12308249792E+01   3.983
   2 T   6 C    -0.16606574548E+00  0.39830295398E+01 -0.13536013552E-06   3.983
   3 F   6 C     0.16606574548E+00  0.12308247217E+01  0.37880894211E+01   3.983
   4 F   6 C     0.33393425452E+00  0.23411661325E+01  0.32223385073E+01   3.983
   5 F   6 C    -0.33393425452E+00 -0.23411680983E+01  0.32223412131E+01   3.983
   6 F   6 C    -0.16606574548E+00 -0.12308236882E+01  0.37880862403E+01   3.983
   7 F   6 C     0.16606574548E+00 -0.39830328844E+01 -0.13536000609E-06   3.983
   8 F   6 C     0.33393425452E+00 -0.37880861566E+01  0.12308239456E+01   3.983
   9 F   6 C    -0.33393425452E+00 -0.23411678793E+01 -0.32223413722E+01   3.983
  10 F   6 C    -0.16606574548E+00 -0.32223386664E+01 -0.23411659135E+01   3.983
  11 F   6 C     0.16606574548E+00  0.12308249792E+01 -0.37880893375E+01   3.983
  12 F   6 C     0.33393425452E+00 -0.13536013625E-06 -0.39830295398E+01   3.983
  13 F   6 C    -0.33393425452E+00  0.37880894211E+01 -0.12308247217E+01   3.983
  14 F   6 C    -0.16606574548E+00  0.32223385073E+01 -0.23411661325E+01   3.983
  15 F   6 C     0.16606574548E+00  0.32223412131E+01  0.23411680983E+01   3.983
  16 F   6 C     0.33393425452E+00  0.37880862403E+01  0.12308236882E+01   3.983
  17 F   6 C    -0.33393425452E+00 -0.13536000543E-06  0.39830328844E+01   3.983
  18 F   6 C    -0.16606574548E+00  0.12308239456E+01  0.37880861566E+01   3.983
  19 F   6 C     0.16606574548E+00 -0.32223413722E+01  0.23411678793E+01   3.983
  20 F   6 C     0.33393425452E+00 -0.23411659135E+01  0.32223386664E+01   3.983
  21 F   6 C    -0.33393425452E+00 -0.37880893375E+01 -0.12308249792E+01   3.983
  22 F   6 C    -0.16606574548E+00 -0.39830295398E+01  0.13536013698E-06   3.983
  23 F   6 C     0.16606574548E+00 -0.12308247217E+01 -0.37880894211E+01   3.983
  24 F   6 C     0.33393425452E+00 -0.23411661325E+01 -0.32223385073E+01   3.983
  25 F   6 C    -0.33393425452E+00  0.23411680983E+01 -0.32223412131E+01   3.983
  26 F   6 C    -0.16606574548E+00  0.12308236882E+01 -0.37880862403E+01   3.983
  27 F   6 C     0.16606574548E+00  0.39830328844E+01  0.13536000454E-06   3.983
  28 F   6 C     0.33393425452E+00  0.37880861566E+01 -0.12308239456E+01   3.983
  29 F   6 C    -0.33393425452E+00  0.23411678793E+01  0.32223413722E+01   3.983
  30 F   6 C    -0.16606574548E+00  0.32223386664E+01  0.23411659135E+01   3.983
  31 F   6 C     0.16606574548E+00 -0.12308249792E+01  0.37880893375E+01   3.983
  32 F   6 C     0.33393425452E+00  0.13536013771E-06  0.39830295398E+01   3.983
  33 F   6 C    -0.33393425452E+00 -0.37880894211E+01  0.12308247217E+01   3.983
  34 F   6 C    -0.16606574548E+00 -0.32223385073E+01  0.23411661325E+01   3.983
  35 F   6 C     0.16606574548E+00 -0.32223412131E+01 -0.23411680983E+01   3.983
  36 F   6 C     0.33393425452E+00 -0.37880862403E+01 -0.12308236882E+01   3.983
  37 F   6 C    -0.33393425452E+00  0.13536000365E-06 -0.39830328844E+01   3.983
  38 F   6 C    -0.16606574548E+00 -0.12308239456E+01 -0.37880861566E+01   3.983
  39 F   6 C     0.16606574548E+00  0.32223413722E+01 -0.23411678793E+01   3.983
  40 F   6 C     0.33393425452E+00  0.23411659135E+01 -0.32223386664E+01   3.983

 T = ATOM BELONGING TO THE ASYMMETRIC UNIT

 ****  20 SYMMOPS - TRANSLATORS IN FRACTIONAL UNITS
  V INV                   ROTATION MATRICES                       TRANSLATOR
  1  1  1.00  0.00  0.00  0.00  1.00  0.00  0.00  0.00  1.00    0.00  0.00  0.00
  2 20  1.00  0.00  0.00  0.00  0.59 -0.81  0.00  0.81  0.59    0.50  0.00  0.00
  3 19  1.00  0.00  0.00  0.00 -0.31 -0.95  0.00  0.95 -0.31    1.00  0.00  0.00
  4 18  1.00  0.00  0.00  0.00 -0.95 -0.31  0.00  0.31 -0.95    1.50  0.00  0.00
  5 17  1.00  0.00  0.00  0.00 -0.81  0.59  0.00 -0.59 -0.81    2.00  0.00  0.00
  6 16  1.00  0.00  0.00  0.00  0.00  1.00  0.00 -1.00  0.00    2.50  0.00  0.00
  7 15  1.00  0.00  0.00  0.00  0.81  0.59  0.00 -0.59  0.81    3.00  0.00  0.00
  8 14  1.00  0.00  0.00  0.00  0.95 -0.31  0.00  0.31  0.95    3.50  0.00  0.00
  9 13  1.00  0.00  0.00  0.00  0.31 -0.95  0.00  0.95  0.31    4.00  0.00  0.00
 10 12  1.00  0.00  0.00  0.00 -0.59 -0.81  0.00  0.81 -0.59    4.50  0.00  0.00
 11 11  1.00  0.00  0.00  0.00 -1.00  0.00  0.00  0.00 -1.00    5.00  0.00  0.00
 12 10  1.00  0.00  0.00  0.00 -0.59  0.81  0.00 -0.81 -0.59    5.50  0.00  0.00
 13  9  1.00  0.00  0.00  0.00  0.31  0.95  0.00 -0.95  0.31    6.00  0.00  0.00
 14  8  1.00  0.00  0.00  0.00  0.95  0.31  0.00 -0.31  0.95    6.50  0.00  0.00
 15  7  1.00  0.00  0.00  0.00  0.81 -0.59  0.00  0.59  0.81    7.00  0.00  0.00
 16  6  1.00  0.00  0.00  0.00  0.00 -1.00  0.00  1.00  0.00    7.50  0.00  0.00
 17  5  1.00  0.00  0.00  0.00 -0.81 -0.59  0.00  0.59 -0.81    8.00  0.00  0.00
 18  4  1.00  0.00  0.00  0.00 -0.95  0.31  0.00 -0.31 -0.95    8.50  0.00  0.00
 19  3  1.00  0.00  0.00  0.00 -0.31  0.95  0.00 -0.95 -0.31    9.00  0.00  0.00
 20  2  1.00  0.00  0.00  0.00  0.59  0.81  0.00 -0.81  0.59    9.50  0.00  0.00

 DIRECT LATTICE VECTORS CARTESIAN COMPONENTS (ANGSTROM)
          X                    Y                    Z
   0.426857372394E+01   0.000000000000E+00   0.000000000000E+00
   0.000000000000E+00   0.500000000000E+03   0.000000000000E+00
   0.000000000000E+00   0.000000000000E+00   0.500000000000E+03


 CARTESIAN COORDINATES - PRIMITIVE CELL
 *******************************************************************************
 *      ATOM          X(ANGSTROM)         Y(ANGSTROM)         Z(ANGSTROM)
 *******************************************************************************
   1     6 C     2.843150739585E+00  3.788089337478E+00  1.230824979162E+00
   2     6 C     3.559709846328E+00  3.983029539837E+00 -1.353601355177E-07
   3     6 C     7.088638776150E-01  1.230824721692E+00  3.788089421135E+00
   4     6 C     1.425422984358E+00  2.341166132470E+00  3.222338507263E+00
   5     6 C     2.843150739585E+00 -2.341168098342E+00  3.222341213054E+00
   6     6 C     3.559709846328E+00 -1.230823688172E+00  3.788086240287E+00
   7     6 C     7.088638776150E-01 -3.983032884379E+00 -1.353600060927E-07
   8     6 C     1.425422984358E+00 -3.788086156630E+00  1.230823945642E+00
   9     6 C     2.843150739585E+00 -2.341167879325E+00 -3.222341372179E+00
  10     6 C     3.559709846328E+00 -3.222338666389E+00 -2.341165913453E+00
  11     6 C     7.088638776150E-01  1.230824979162E+00 -3.788089337478E+00
  12     6 C     1.425422984358E+00 -1.353601362493E-07 -3.983029539837E+00
  13     6 C     2.843150739585E+00  3.788089421135E+00 -1.230824721692E+00
  14     6 C     3.559709846328E+00  3.222338507263E+00 -2.341166132470E+00
  15     6 C     7.088638776150E-01  3.222341213054E+00  2.341168098342E+00
  16     6 C     1.425422984358E+00  3.788086240287E+00  1.230823688172E+00
  17     6 C     2.843150739585E+00 -1.353600054266E-07  3.983032884379E+00
  18     6 C     3.559709846328E+00  1.230823945642E+00  3.788086156630E+00
  19     6 C     7.088638776150E-01 -3.222341372179E+00  2.341167879325E+00
  20     6 C     1.425422984358E+00 -2.341165913453E+00  3.222338666389E+00
  21     6 C     2.843150739585E+00 -3.788089337478E+00 -1.230824979162E+00
  22     6 C     3.559709846328E+00 -3.983029539837E+00  1.353601369810E-07
  23     6 C     7.088638776150E-01 -1.230824721692E+00 -3.788089421135E+00
  24     6 C     1.425422984358E+00 -2.341166132470E+00 -3.222338507263E+00
  25     6 C     2.843150739585E+00  2.341168098342E+00 -3.222341213054E+00
  26     6 C     3.559709846328E+00  1.230823688172E+00 -3.788086240287E+00
  27     6 C     7.088638776150E-01  3.983032884379E+00  1.353600045384E-07
  28     6 C     1.425422984358E+00  3.788086156630E+00 -1.230823945642E+00
  29     6 C     2.843150739585E+00  2.341167879325E+00  3.222341372179E+00
  30     6 C     3.559709846328E+00  3.222338666389E+00  2.341165913453E+00
  31     6 C     7.088638776150E-01 -1.230824979162E+00  3.788089337478E+00
  32     6 C     1.425422984358E+00  1.353601377127E-07  3.983029539837E+00
  33     6 C     2.843150739585E+00 -3.788089421135E+00  1.230824721692E+00
  34     6 C     3.559709846328E+00 -3.222338507263E+00  2.341166132470E+00
  35     6 C     7.088638776150E-01 -3.222341213054E+00 -2.341168098342E+00
  36     6 C     1.425422984358E+00 -3.788086240287E+00 -1.230823688172E+00
  37     6 C     2.843150739585E+00  1.353600036502E-07 -3.983032884379E+00
  38     6 C     3.559709846328E+00 -1.230823945642E+00 -3.788086156630E+00
  39     6 C     7.088638776150E-01  3.222341372179E+00 -2.341167879325E+00
  40     6 C     1.425422984358E+00  2.341165913453E+00 -3.222338666389E+00

 *******************************************************************************
 LOCAL ATOMIC FUNCTIONS BASIS SET
 *******************************************************************************
   ATOM  X(AU)  Y(AU)  Z(AU)    NO. TYPE  EXPONENT  S COEF   P COEF   D/F/G COEF
 *******************************************************************************
   1 C   5.373  7.158  2.326
                                  1 S  
                                         3.048E+03 1.826E-03 0.000E+00 0.000E+00
                                         4.564E+02 1.406E-02 0.000E+00 0.000E+00
                                         1.037E+02 6.876E-02 0.000E+00 0.000E+00
                                         2.923E+01 2.304E-01 0.000E+00 0.000E+00
                                         9.349E+00 4.685E-01 0.000E+00 0.000E+00
                                         3.189E+00 3.628E-01 0.000E+00 0.000E+00
                             2-   5 SP 
                                         3.665E+00-3.959E-01 2.365E-01 0.000E+00
                                         7.705E-01 1.216E+00 8.606E-01 0.000E+00
                             6-   9 SP 
                                         1.959E-01 1.000E+00 1.000E+00 0.000E+00
   2 C   6.727  7.527  0.000
   3 C   1.340  2.326  7.158
   4 C   2.694  4.424  6.089
   5 C   5.373 -4.424  6.089
   6 C   6.727 -2.326  7.158
   7 C   1.340 -7.527  0.000
   8 C   2.694 -7.158  2.326
   9 C   5.373 -4.424 -6.089
  10 C   6.727 -6.089 -4.424
  11 C   1.340  2.326 -7.158
  12 C   2.694  0.000 -7.527
  13 C   5.373  7.158 -2.326
  14 C   6.727  6.089 -4.424
  15 C   1.340  6.089  4.424
  16 C   2.694  7.158  2.326
  17 C   5.373  0.000  7.527
  18 C   6.727  2.326  7.158
  19 C   1.340 -6.089  4.424
  20 C   2.694 -4.424  6.089
  21 C   5.373 -7.158 -2.326
  22 C   6.727 -7.527  0.000
  23 C   1.340 -2.326 -7.158
  24 C   2.694 -4.424 -6.089
  25 C   5.373  4.424 -6.089
  26 C   6.727  2.326 -7.158
  27 C   1.340  7.527  0.000
  28 C   2.694  7.158 -2.326
  29 C   5.373  4.424  6.089
  30 C   6.727  6.089  4.424
  31 C   1.340 -2.326  7.158
  32 C   2.694  0.000  7.527
  33 C   5.373 -7.158  2.326
  34 C   6.727 -6.089  4.424
  35 C   1.340 -6.089 -4.424
  36 C   2.694 -7.158 -2.326
  37 C   5.373  0.000 -7.527
  38 C   6.727 -2.326 -7.158
  39 C   1.340  6.089 -4.424
  40 C   2.694  4.424 -6.089
 INFORMATION **** TOLINTEG **** COULOMB AND EXCHANGE SERIES TOLERANCES MODIFIED
 INFORMATION **** READM2 **** FULL DIRECT SCF (MONO AND BIEL INT) SELECTED
 INFORMATION **** LEVSHIFT **** LEVEL SHIFTER ACTIVE
 INFORMATION **** TOLDEE **** SCF TOL ON TOTAL ENERGY SET TO           8
 INFORMATION **** MAXCYCLE **** MAX NUMBER OF SCF CYCLES SET TO         100
 *******************************************************************************
 N. OF ATOMS PER CELL       40  COULOMB OVERLAP TOL         (T1) 10** -8
 NUMBER OF SHELLS          120  COULOMB PENETRATION TOL     (T2) 10** -8
 NUMBER OF AO              360  EXCHANGE OVERLAP TOL        (T3) 10** -8
 N. OF ELECTRONS PER CELL  240  EXCHANGE PSEUDO OVP (F(G))  (T4) 10** -8
 CORE ELECTRONS PER CELL    80  EXCHANGE PSEUDO OVP (P(G))  (T5) 10**-16
 N. OF SYMMETRY OPERATORS   20  POLE ORDER IN MONO ZONE                4
 *******************************************************************************
 TYPE OF CALCULATION :  RESTRICTED CLOSED SHELL
 KOHN-SHAM HAMILTONIAN

 (EXCHANGE)[CORRELATION] FUNCTIONAL:(BECKE)[LEE-YANG-PARR]

 NON-LOCAL WEIGHTING FACTOR (EXCHANGE) =           0.9000
 NON-LOCAL WEIGHTING FACTOR [CORRELATION] =        0.8100

 HYBRID EXCHANGE - PERCENTAGE OF FOCK EXCHANGE    20.0000
 EIGENVALUE LEVEL SHIFTING OF  1.000 HARTREE
 LOCKING - FERMI ENERGY ALTERED BY LEVEL SHIFTER

 CAPPA:IS1 10;IS2  1;IS3  1; K PTS MONK NET    6; SYMMOPS: K SPACE 40;G SPACE 20

 *******************************************************************************
 MAX NUMBER OF SCF CYCLES     100  CONVERGENCE ON DELTAP        10**-18
 WEIGHT OF F(I) IN F(I+1)      30% CONVERGENCE ON ENERGY        10**- 8
 EIGENVALUE LEVEL SHIFTING OF  1.000 HARTREE
 LOCKING - FERMI ENERGY ALTERED BY LEVEL SHIFTER
 SHRINK. FACT.(MONKH.)   10  1  1  NUMBER OF K POINTS IN THE IBZ      6
 SHRINKING FACTOR(GILAT NET)   10  NUMBER OF K POINTS(GILAT NET)      6
 *******************************************************************************
 *** K POINTS COORDINATES (OBLIQUE COORDINATES IN UNITS OF IS = 10)
   1-R(  0  0  0)   2-C(  1  0  0)   3-C(  2  0  0)   4-C(  3  0  0)
   5-C(  4  0  0)   6-R(  5  0  0)

 DIRECT LATTICE VECTORS COMPON. (A.U.)     RECIP. LATTICE VECTORS COMPON. (A.U.) 
        X            Y            Z              X            Y            Z
    8.0664353    0.0000000    0.0000000      0.7789296    0.0000000    0.0000000
    0.0000000  944.8630670    0.0000000      0.0000000    0.0066498    0.0000000
    0.0000000    0.0000000  944.8630670      0.0000000    0.0000000    0.0066498

 DISK SPACE FOR EIGENVECTORS (FTN 10)    1296000 REALS

 SYMMETRY ADAPTION OF THE BLOCH FUNCTIONS ENABLED
 TTTTTTTTTTTTTTTTTTTTTTTTTTTTTT gordsh1     TELAPSE        0.01 TCPU        0.01

 DIMENSIONS  P(G)=  282640 F(G)=   61220 P(G),F(G) (IRR)    7243
 MAX G-VECTOR INDEX FOR 1- AND 2-ELECTRON INTEGRALS  20

 TTTTTTTTTTTTTTTTTTTTTTTTTTTTTT INPUT       TELAPSE        0.01 TCPU        0.01

 NEIGHBORS OF THE NON-EQUIVALENT ATOMS

 N = NUMBER OF NEIGHBORS AT DISTANCE R
    ATOM  N     R/ANG      R/AU   NEIGHBORS (ATOM LABELS AND CELL INDICES)
   1 C    1     1.4177     2.6791  16 C    0 0 0
   1 C    1     1.4375     2.7165  30 C    0 0 0
   1 C    1     1.4375     2.7165   2 C    0 0 0
   1 C    2     2.4616     4.6518  13 C    0 0 0  29 C    0 0 0
   1 C    4     2.4715     4.6704  15 C    0 0 0  15 C    1 0 0  27 C    1 0 0
                                   27 C    0 0 0
   1 C    1     2.8407     5.3682   4 C    0 0 0

   2 C    1     1.4177     2.6791  27 C    1 0 0
   2 C    1     1.4375     2.7165  13 C    0 0 0
   2 C    1     1.4375     2.7165   1 C    0 0 0
   2 C    2     2.4616     4.6518  14 C    0 0 0  30 C    0 0 0
   2 C    4     2.4715     4.6704  16 C    0 0 0  16 C    1 0 0  28 C    1 0 0
                                   28 C    0 0 0
   2 C    1     2.8407     5.3682  39 C    1 0 0


 SYMMETRY ALLOWED ELASTIC DISTORTION 1
  1.0000000

 SYMMETRY ALLOWED INTERNAL DEGREE(S) OF FREEDOM:   4
 TTTTTTTTTTTTTTTTTTTTTTTTTTTTTT SYMM        TELAPSE        0.23 TCPU        0.21
 TTTTTTTTTTTTTTTTTTTTTTTTTTTTTT INT_SCREEN  TELAPSE        0.23 TCPU        0.21
 *******************************************************************************
 COORDINATE AND CELL OPTIMIZATION - POINT    1
 INFORMATION **** EXCBUF **** EXCH. BIPO BUFFER: WORDS USED =      360000
 WARNING **** EXCBUF **** EXCH. BIPO BUFFER TOO SMALL - TO AVOID I/O SET EXCHSIZE =      430452

 DFT PARAMETERS

     ATOM       ELECTRONS   NET CHARGE   R(ANGSTROM)
   1   6  C       6.0000      0.0000     0.77000000

 SIZE OF GRID=      64940
 TTTTTTTTTTTTTTTTTTTTTTTTTTTTTT MAKE_GRID2  TELAPSE        1.24 TCPU        1.19
 BECKE WEIGHT FUNCTION
 RADSAFE =     2.00
 TOLERANCES - DENSITY:10**- 6; POTENTIAL:10**- 9; GRID WGT:10**-14

 RADIAL INTEGRATION  - INTERVALS (POINTS,UPPER LIMIT):            1( 75,  4.0*R)

 ANGULAR INTEGRATION - INTERVALS (ACCURACY LEVEL [N. POINTS] UPPER LIMIT):
  1(  4[  86]   0.2)  2(  8[ 194]   0.5)  3( 12[ 350]   0.9)  4( 16[ 974]   3.5)
  5( 12[ 350]9999.0)
 TTTTTTTTTTTTTTTTTTTTTTTTTTTTTT INT_CALC    TELAPSE        1.24 TCPU        1.19

 *******************************************************************************
 TEST06 - zigzag C NANOTUBE - 6-21G, B3LYP, opt  nanorebuild from test05         
 CRYSTAL - SCF - TYPE OF CALCULATION :  RESTRICTED CLOSED SHELL
 *******************************************************************************

 CAPPA:IS1 10;IS2  1;IS3  1; K PTS MONK NET    6; SYMMOPS: K SPACE 40;G SPACE 20

 TTTTTTTTTTTTTTTTTTTTTTTTTTTTTT SDIK        TELAPSE        1.46 TCPU        1.40

 AAAAAAAAAAAAAAAAAAAAAAAAAAAAAAAAAAAAAAAAAAAAAAAAAAAAAAAAAAAAAAAAAAAAAAAAAAAAAAA
         ATOMIC WAVEFUNCTION(S)


 NUCLEAR CHARGE  6.0  SYMMETRY SPECIES            S    P
 N. ELECTRONS    6.0  NUMBER OF PRIMITIVE GTOS    9    3
                      NUMBER OF CONTRACTED GTOS   3    2
                      NUMBER OF CLOSED SHELLS     2    0
                      OPEN SHELL OCCUPATION       0    2

  ZNUC SCFIT  TOTAL HF ENERGY   KINETIC ENERGY   VIRIAL THEOREM ACCURACY
   6.0   9   -3.765831823E+01  3.765320062E+01 -2.000135914E+00  1.5E-06

 AAAAAAAAAAAAAAAAAAAAAAAAAAAAAAAAAAAAAAAAAAAAAAAAAAAAAAAAAAAAAAAAAAAAAAAAAAAAAAA

 CHARGE NORMALIZATION FACTOR   1.00000000
 TOTAL ATOMIC CHARGES:
   6.0000000   6.0000000   6.0000000   6.0000000   6.0000000   6.0000000
   6.0000000   6.0000000   6.0000000   6.0000000   6.0000000   6.0000000
   6.0000000   6.0000000   6.0000000   6.0000000   6.0000000   6.0000000
   6.0000000   6.0000000   6.0000000   6.0000000   6.0000000   6.0000000
   6.0000000   6.0000000   6.0000000   6.0000000   6.0000000   6.0000000
   6.0000000   6.0000000   6.0000000   6.0000000   6.0000000   6.0000000
   6.0000000   6.0000000   6.0000000   6.0000000
 TTTTTTTTTTTTTTTTTTTTTTTTTTTTTT MOQGAD      TELAPSE        1.52 TCPU        1.46
 TTTTTTTTTTTTTTTTTTTTTTTTTTTTTT SHELLX      TELAPSE        4.77 TCPU        4.71
 TTTTTTTTTTTTTTTTTTTTTTTTTTTTTT MONMO3      TELAPSE        4.94 TCPU        4.77
 NUMERICALLY INTEGRATED DENSITY    239.9998198078
 TTTTTTTTTTTTTTTTTTTTTTTTTTTTTT NUMDFT      TELAPSE        6.31 TCPU        6.09
 CYC   0 ETOT(AU) -1.537003217918E+03 DETOT -1.54E+03 tst  0.00E+00 PX  1.00E+00
 TTTTTTTTTTTTTTTTTTTTTTTTTTTTTT FDIK        TELAPSE        6.39 TCPU        6.17
 INSULATING STATE - LEVEL SHIFTER    1.00 au
 TOP OF VALENCE BANDS -    BAND    120; K    1; EIG -2.1630017E-01 AU
 BOTTOM OF VIRTUAL BANDS - BAND    121; K    1; EIG -1.9199731E-01 AU
 TTTTTTTTTTTTTTTTTTTTTTTTTTTTTT PDIG        TELAPSE        6.57 TCPU        6.34
 CHARGE NORMALIZATION FACTOR   1.00000000
 TOTAL ATOMIC CHARGES:
   5.9999915   6.0000085   5.9999915   6.0000085   5.9999915   6.0000085
   5.9999915   6.0000085   5.9999915   6.0000085   5.9999915   6.0000085
   5.9999915   6.0000085   5.9999915   6.0000085   5.9999915   6.0000085
   5.9999915   6.0000085   5.9999915   6.0000085   5.9999915   6.0000085
   5.9999915   6.0000085   5.9999915   6.0000085   5.9999915   6.0000085
   5.9999915   6.0000085   5.9999915   6.0000085   5.9999915   6.0000085
   5.9999915   6.0000085   5.9999915   6.0000085
 TTTTTTTTTTTTTTTTTTTTTTTTTTTTTT MOQGAD      TELAPSE        6.63 TCPU        6.40
 TTTTTTTTTTTTTTTTTTTTTTTTTTTTTT SHELLX      TELAPSE       10.02 TCPU        9.79
 TTTTTTTTTTTTTTTTTTTTTTTTTTTTTT MONMO3      TELAPSE       10.19 TCPU        9.86
 NUMERICALLY INTEGRATED DENSITY    239.9997993789
 TTTTTTTTTTTTTTTTTTTTTTTTTTTTTT NUMDFT      TELAPSE       13.33 TCPU       12.97
 CYC   1 ETOT(AU) -1.522049175454E+03 DETOT  1.50E+01 tst  0.00E+00 PX  1.00E+00
 TTTTTTTTTTTTTTTTTTTTTTTTTTTTTT FDIK        TELAPSE       13.40 TCPU       13.04
 INSULATING STATE - LEVEL SHIFTER    1.00 au
 TOP OF VALENCE BANDS -    BAND    120; K    1; EIG -1.1660975E+00 AU
 BOTTOM OF VIRTUAL BANDS - BAND    121; K    1; EIG -1.3610409E-01 AU
 TTTTTTTTTTTTTTTTTTTTTTTTTTTTTT PDIG        TELAPSE       13.58 TCPU       13.19
 CHARGE NORMALIZATION FACTOR   1.00000000
 TOTAL ATOMIC CHARGES:
   5.9999735   6.0000265   5.9999735   6.0000265   5.9999735   6.0000265
   5.9999735   6.0000265   5.9999735   6.0000265   5.9999735   6.0000265
   5.9999735   6.0000265   5.9999735   6.0000265   5.9999735   6.0000265
   5.9999735   6.0000265   5.9999735   6.0000265   5.9999735   6.0000265
   5.9999735   6.0000265   5.9999735   6.0000265   5.9999735   6.0000265
   5.9999735   6.0000265   5.9999735   6.0000265   5.9999735   6.0000265
   5.9999735   6.0000265   5.9999735   6.0000265
 TTTTTTTTTTTTTTTTTTTTTTTTTTTTTT MOQGAD      TELAPSE       13.64 TCPU       13.25
 TTTTTTTTTTTTTTTTTTTTTTTTTTTTTT SHELLX      TELAPSE       17.04 TCPU       16.64
 TTTTTTTTTTTTTTTTTTTTTTTTTTTTTT MONMO3      TELAPSE       17.20 TCPU       16.70
 NUMERICALLY INTEGRATED DENSITY    239.9997884479
 TTTTTTTTTTTTTTTTTTTTTTTTTTTTTT NUMDFT      TELAPSE       20.32 TCPU       19.80
 CYC   2 ETOT(AU) -1.522123406011E+03 DETOT -7.42E-02 tst  9.23E-04 PX  1.53E-02
 TTTTTTTTTTTTTTTTTTTTTTTTTTTTTT FDIK        TELAPSE       20.39 TCPU       19.87
 INSULATING STATE - LEVEL SHIFTER    1.00 au
 TOP OF VALENCE BANDS -    BAND    120; K    1; EIG -1.1640166E+00 AU
 BOTTOM OF VIRTUAL BANDS - BAND    121; K    1; EIG -1.3199277E-01 AU
 TTTTTTTTTTTTTTTTTTTTTTTTTTTTTT PDIG        TELAPSE       20.56 TCPU       20.03
 CHARGE NORMALIZATION FACTOR   1.00000000
 TOTAL ATOMIC CHARGES:
   5.9999830   6.0000170   5.9999830   6.0000170   5.9999830   6.0000170
   5.9999830   6.0000170   5.9999830   6.0000170   5.9999830   6.0000170
   5.9999830   6.0000170   5.9999830   6.0000170   5.9999830   6.0000170
   5.9999830   6.0000170   5.9999830   6.0000170   5.9999830   6.0000170
   5.9999830   6.0000170   5.9999830   6.0000170   5.9999830   6.0000170
   5.9999830   6.0000170   5.9999830   6.0000170   5.9999830   6.0000170
   5.9999830   6.0000170   5.9999830   6.0000170
 TTTTTTTTTTTTTTTTTTTTTTTTTTTTTT MOQGAD      TELAPSE       20.63 TCPU       20.09
 TTTTTTTTTTTTTTTTTTTTTTTTTTTTTT SHELLX      TELAPSE       24.02 TCPU       23.48
 TTTTTTTTTTTTTTTTTTTTTTTTTTTTTT MONMO3      TELAPSE       24.18 TCPU       23.54
 NUMERICALLY INTEGRATED DENSITY    239.9997814801
 TTTTTTTTTTTTTTTTTTTTTTTTTTTTTT NUMDFT      TELAPSE       27.32 TCPU       26.65
 CYC   3 ETOT(AU) -1.522142034500E+03 DETOT -1.86E-02 tst  4.01E-04 PX  1.06E-02
 TTTTTTTTTTTTTTTTTTTTTTTTTTTTTT FDIK        TELAPSE       27.39 TCPU       26.71
 INSULATING STATE - LEVEL SHIFTER    1.00 au
 TOP OF VALENCE BANDS -    BAND    120; K    1; EIG -1.1702532E+00 AU
 BOTTOM OF VIRTUAL BANDS - BAND    121; K    1; EIG -1.3758715E-01 AU
 TTTTTTTTTTTTTTTTTTTTTTTTTTTTTT PDIG        TELAPSE       27.56 TCPU       26.86
 CHARGE NORMALIZATION FACTOR   1.00000000
 TOTAL ATOMIC CHARGES:
   5.9999891   6.0000109   5.9999891   6.0000109   5.9999891   6.0000109
   5.9999891   6.0000109   5.9999891   6.0000109   5.9999891   6.0000109
   5.9999891   6.0000109   5.9999891   6.0000109   5.9999891   6.0000109
   5.9999891   6.0000109   5.9999891   6.0000109   5.9999891   6.0000109
   5.9999891   6.0000109   5.9999891   6.0000109   5.9999891   6.0000109
   5.9999891   6.0000109   5.9999891   6.0000109   5.9999891   6.0000109
   5.9999891   6.0000109   5.9999891   6.0000109
 TTTTTTTTTTTTTTTTTTTTTTTTTTTTTT MOQGAD      TELAPSE       27.62 TCPU       26.93
 TTTTTTTTTTTTTTTTTTTTTTTTTTTTTT SHELLX      TELAPSE       31.02 TCPU       30.32
 TTTTTTTTTTTTTTTTTTTTTTTTTTTTTT MONMO3      TELAPSE       31.17 TCPU       30.38
 NUMERICALLY INTEGRATED DENSITY    239.9997785459
 TTTTTTTTTTTTTTTTTTTTTTTTTTTTTT NUMDFT      TELAPSE       34.30 TCPU       33.50
 CYC   4 ETOT(AU) -1.522145112858E+03 DETOT -3.08E-03 tst  8.60E-05 PX  1.03E-02
 TTTTTTTTTTTTTTTTTTTTTTTTTTTTTT FDIK        TELAPSE       34.38 TCPU       33.56
 INSULATING STATE - LEVEL SHIFTER    1.00 au
 TOP OF VALENCE BANDS -    BAND    120; K    1; EIG -1.1742724E+00 AU
 BOTTOM OF VIRTUAL BANDS - BAND    121; K    1; EIG -1.4142669E-01 AU
 TTTTTTTTTTTTTTTTTTTTTTTTTTTTTT PDIG        TELAPSE       34.55 TCPU       33.72
 CHARGE NORMALIZATION FACTOR   1.00000000
 TOTAL ATOMIC CHARGES:
   5.9999900   6.0000100   5.9999900   6.0000100   5.9999900   6.0000100
   5.9999900   6.0000100   5.9999900   6.0000100   5.9999900   6.0000100
   5.9999900   6.0000100   5.9999900   6.0000100   5.9999900   6.0000100
   5.9999900   6.0000100   5.9999900   6.0000100   5.9999900   6.0000100
   5.9999900   6.0000100   5.9999900   6.0000100   5.9999900   6.0000100
   5.9999900   6.0000100   5.9999900   6.0000100   5.9999900   6.0000100
   5.9999900   6.0000100   5.9999900   6.0000100
 TTTTTTTTTTTTTTTTTTTTTTTTTTTTTT MOQGAD      TELAPSE       34.61 TCPU       33.78
 TTTTTTTTTTTTTTTTTTTTTTTTTTTTTT SHELLX      TELAPSE       38.01 TCPU       37.18
 TTTTTTTTTTTTTTTTTTTTTTTTTTTTTT MONMO3      TELAPSE       38.16 TCPU       37.24
 NUMERICALLY INTEGRATED DENSITY    239.9997775446
 TTTTTTTTTTTTTTTTTTTTTTTTTTTTTT NUMDFT      TELAPSE       41.30 TCPU       40.33
 CYC   5 ETOT(AU) -1.522145817706E+03 DETOT -7.05E-04 tst  3.62E-05 PX  7.48E-03
 TTTTTTTTTTTTTTTTTTTTTTTTTTTTTT FDIK        TELAPSE       41.37 TCPU       40.40
 INSULATING STATE - LEVEL SHIFTER    1.00 au
 TOP OF VALENCE BANDS -    BAND    120; K    1; EIG -1.1758044E+00 AU
 BOTTOM OF VIRTUAL BANDS - BAND    121; K    1; EIG -1.4289242E-01 AU
 TTTTTTTTTTTTTTTTTTTTTTTTTTTTTT PDIG        TELAPSE       41.55 TCPU       40.57
 CHARGE NORMALIZATION FACTOR   1.00000000
 TOTAL ATOMIC CHARGES:
   5.9999908   6.0000092   5.9999908   6.0000092   5.9999908   6.0000092
   5.9999908   6.0000092   5.9999908   6.0000092   5.9999908   6.0000092
   5.9999908   6.0000092   5.9999908   6.0000092   5.9999908   6.0000092
   5.9999908   6.0000092   5.9999908   6.0000092   5.9999908   6.0000092
   5.9999908   6.0000092   5.9999908   6.0000092   5.9999908   6.0000092
   5.9999908   6.0000092   5.9999908   6.0000092   5.9999908   6.0000092
   5.9999908   6.0000092   5.9999908   6.0000092
 TTTTTTTTTTTTTTTTTTTTTTTTTTTTTT MOQGAD      TELAPSE       41.61 TCPU       40.63
 TTTTTTTTTTTTTTTTTTTTTTTTTTTTTT SHELLX      TELAPSE       45.01 TCPU       44.03
 TTTTTTTTTTTTTTTTTTTTTTTTTTTTTT MONMO3      TELAPSE       45.16 TCPU       44.09
 NUMERICALLY INTEGRATED DENSITY    239.9997772164
 TTTTTTTTTTTTTTTTTTTTTTTTTTTTTT NUMDFT      TELAPSE       48.29 TCPU       47.21
 CYC   6 ETOT(AU) -1.522146057658E+03 DETOT -2.40E-04 tst  2.71E-05 PX  4.92E-03
 TTTTTTTTTTTTTTTTTTTTTTTTTTTTTT FDIK        TELAPSE       48.36 TCPU       47.27
 INSULATING STATE - LEVEL SHIFTER    1.00 au
 TOP OF VALENCE BANDS -    BAND    120; K    1; EIG -1.1761837E+00 AU
 BOTTOM OF VIRTUAL BANDS - BAND    121; K    1; EIG -1.4323155E-01 AU
 TTTTTTTTTTTTTTTTTTTTTTTTTTTTTT PDIG        TELAPSE       48.54 TCPU       47.43
 CHARGE NORMALIZATION FACTOR   1.00000000
 TOTAL ATOMIC CHARGES:
   5.9999918   6.0000082   5.9999918   6.0000082   5.9999918   6.0000082
   5.9999918   6.0000082   5.9999918   6.0000082   5.9999918   6.0000082
   5.9999918   6.0000082   5.9999918   6.0000082   5.9999918   6.0000082
   5.9999918   6.0000082   5.9999918   6.0000082   5.9999918   6.0000082
   5.9999918   6.0000082   5.9999918   6.0000082   5.9999918   6.0000082
   5.9999918   6.0000082   5.9999918   6.0000082   5.9999918   6.0000082
   5.9999918   6.0000082   5.9999918   6.0000082
 TTTTTTTTTTTTTTTTTTTTTTTTTTTTTT MOQGAD      TELAPSE       48.60 TCPU       47.49
 TTTTTTTTTTTTTTTTTTTTTTTTTTTTTT SHELLX      TELAPSE       52.00 TCPU       50.89
 TTTTTTTTTTTTTTTTTTTTTTTTTTTTTT MONMO3      TELAPSE       52.15 TCPU       50.95
 NUMERICALLY INTEGRATED DENSITY    239.9997770847
 TTTTTTTTTTTTTTTTTTTTTTTTTTTTTT NUMDFT      TELAPSE       55.29 TCPU       54.05
 CYC   7 ETOT(AU) -1.522146148904E+03 DETOT -9.12E-05 tst  1.98E-05 PX  3.09E-03
 TTTTTTTTTTTTTTTTTTTTTTTTTTTTTT FDIK        TELAPSE       55.36 TCPU       54.11
 INSULATING STATE - LEVEL SHIFTER    1.00 au
 TOP OF VALENCE BANDS -    BAND    120; K    1; EIG -1.1762214E+00 AU
 BOTTOM OF VIRTUAL BANDS - BAND    121; K    1; EIG -1.4323684E-01 AU
 TTTTTTTTTTTTTTTTTTTTTTTTTTTTTT PDIG        TELAPSE       55.52 TCPU       54.27
 CHARGE NORMALIZATION FACTOR   1.00000000
 TOTAL ATOMIC CHARGES:
   5.9999918   6.0000082   5.9999918   6.0000082   5.9999918   6.0000082
   5.9999918   6.0000082   5.9999918   6.0000082   5.9999918   6.0000082
   5.9999918   6.0000082   5.9999918   6.0000082   5.9999918   6.0000082
   5.9999918   6.0000082   5.9999918   6.0000082   5.9999918   6.0000082
   5.9999918   6.0000082   5.9999918   6.0000082   5.9999918   6.0000082
   5.9999918   6.0000082   5.9999918   6.0000082   5.9999918   6.0000082
   5.9999918   6.0000082   5.9999918   6.0000082
 TTTTTTTTTTTTTTTTTTTTTTTTTTTTTT MOQGAD      TELAPSE       55.58 TCPU       54.33
 TTTTTTTTTTTTTTTTTTTTTTTTTTTTTT SHELLX      TELAPSE       58.98 TCPU       57.73
 TTTTTTTTTTTTTTTTTTTTTTTTTTTTTT MONMO3      TELAPSE       59.13 TCPU       57.79
 NUMERICALLY INTEGRATED DENSITY    239.9997770148
 TTTTTTTTTTTTTTTTTTTTTTTTTTTTTT NUMDFT      TELAPSE       62.26 TCPU       60.89
 CYC   8 ETOT(AU) -1.522146186868E+03 DETOT -3.80E-05 tst  1.43E-05 PX  1.88E-03
 TTTTTTTTTTTTTTTTTTTTTTTTTTTTTT FDIK        TELAPSE       62.33 TCPU       60.96
 INSULATING STATE - LEVEL SHIFTER    1.00 au
 TOP OF VALENCE BANDS -    BAND    120; K    1; EIG -1.1762063E+00 AU
 BOTTOM OF VIRTUAL BANDS - BAND    121; K    1; EIG -1.4319370E-01 AU
 TTTTTTTTTTTTTTTTTTTTTTTTTTTTTT PDIG        TELAPSE       62.50 TCPU       61.11
 CHARGE NORMALIZATION FACTOR   1.00000000
 TOTAL ATOMIC CHARGES:
   5.9999922   6.0000078   5.9999922   6.0000078   5.9999922   6.0000078
   5.9999922   6.0000078   5.9999922   6.0000078   5.9999922   6.0000078
   5.9999922   6.0000078   5.9999922   6.0000078   5.9999922   6.0000078
   5.9999922   6.0000078   5.9999922   6.0000078   5.9999922   6.0000078
   5.9999922   6.0000078   5.9999922   6.0000078   5.9999922   6.0000078
   5.9999922   6.0000078   5.9999922   6.0000078   5.9999922   6.0000078
   5.9999922   6.0000078   5.9999922   6.0000078
 TTTTTTTTTTTTTTTTTTTTTTTTTTTTTT MOQGAD      TELAPSE       62.56 TCPU       61.17
 TTTTTTTTTTTTTTTTTTTTTTTTTTTTTT SHELLX      TELAPSE       65.96 TCPU       64.56
 TTTTTTTTTTTTTTTTTTTTTTTTTTTTTT MONMO3      TELAPSE       66.11 TCPU       64.63
 NUMERICALLY INTEGRATED DENSITY    239.9997769742
 TTTTTTTTTTTTTTTTTTTTTTTTTTTTTT NUMDFT      TELAPSE       69.24 TCPU       67.72
 CYC   9 ETOT(AU) -1.522146204879E+03 DETOT -1.80E-05 tst  1.04E-05 PX  1.12E-03
 TTTTTTTTTTTTTTTTTTTTTTTTTTTTTT FDIK        TELAPSE       69.31 TCPU       67.79
 INSULATING STATE - LEVEL SHIFTER    1.00 au
 TOP OF VALENCE BANDS -    BAND    120; K    1; EIG -1.1762005E+00 AU
 BOTTOM OF VIRTUAL BANDS - BAND    121; K    1; EIG -1.4316311E-01 AU
 TTTTTTTTTTTTTTTTTTTTTTTTTTTTTT PDIG        TELAPSE       69.49 TCPU       67.94
 CHARGE NORMALIZATION FACTOR   1.00000000
 TOTAL ATOMIC CHARGES:
   5.9999926   6.0000074   5.9999926   6.0000074   5.9999926   6.0000074
   5.9999926   6.0000074   5.9999926   6.0000074   5.9999926   6.0000074
   5.9999926   6.0000074   5.9999926   6.0000074   5.9999926   6.0000074
   5.9999926   6.0000074   5.9999926   6.0000074   5.9999926   6.0000074
   5.9999926   6.0000074   5.9999926   6.0000074   5.9999926   6.0000074
   5.9999926   6.0000074   5.9999926   6.0000074   5.9999926   6.0000074
   5.9999926   6.0000074   5.9999926   6.0000074
 TTTTTTTTTTTTTTTTTTTTTTTTTTTTTT MOQGAD      TELAPSE       69.55 TCPU       68.00
 TTTTTTTTTTTTTTTTTTTTTTTTTTTTTT SHELLX      TELAPSE       72.95 TCPU       71.40
 TTTTTTTTTTTTTTTTTTTTTTTTTTTTTT MONMO3      TELAPSE       73.10 TCPU       71.46
 NUMERICALLY INTEGRATED DENSITY    239.9997769525
 TTTTTTTTTTTTTTTTTTTTTTTTTTTTTT NUMDFT      TELAPSE       76.24 TCPU       74.55
 CYC  10 ETOT(AU) -1.522146214563E+03 DETOT -9.68E-06 tst  7.48E-06 PX  6.54E-04
 TTTTTTTTTTTTTTTTTTTTTTTTTTTTTT FDIK        TELAPSE       76.31 TCPU       74.62
 INSULATING STATE - LEVEL SHIFTER    1.00 au
 TOP OF VALENCE BANDS -    BAND    120; K    1; EIG -1.1762036E+00 AU
 BOTTOM OF VIRTUAL BANDS - BAND    121; K    1; EIG -1.4314441E-01 AU
 TTTTTTTTTTTTTTTTTTTTTTTTTTTTTT PDIG        TELAPSE       76.49 TCPU       74.80
 CHARGE NORMALIZATION FACTOR   1.00000000
 TOTAL ATOMIC CHARGES:
   5.9999925   6.0000075   5.9999925   6.0000075   5.9999925   6.0000075
   5.9999925   6.0000075   5.9999925   6.0000075   5.9999925   6.0000075
   5.9999925   6.0000075   5.9999925   6.0000075   5.9999925   6.0000075
   5.9999925   6.0000075   5.9999925   6.0000075   5.9999925   6.0000075
   5.9999925   6.0000075   5.9999925   6.0000075   5.9999925   6.0000075
   5.9999925   6.0000075   5.9999925   6.0000075   5.9999925   6.0000075
   5.9999925   6.0000075   5.9999925   6.0000075
 TTTTTTTTTTTTTTTTTTTTTTTTTTTTTT MOQGAD      TELAPSE       76.55 TCPU       74.86
 TTTTTTTTTTTTTTTTTTTTTTTTTTTTTT SHELLX      TELAPSE       79.95 TCPU       78.25
 TTTTTTTTTTTTTTTTTTTTTTTTTTTTTT MONMO3      TELAPSE       80.11 TCPU       78.31
 NUMERICALLY INTEGRATED DENSITY    239.9997769427
 TTTTTTTTTTTTTTTTTTTTTTTTTTTTTT NUMDFT      TELAPSE       83.23 TCPU       81.42
 CYC  11 ETOT(AU) -1.522146220475E+03 DETOT -5.91E-06 tst  5.41E-06 PX  3.82E-04
 TTTTTTTTTTTTTTTTTTTTTTTTTTTTTT FDIK        TELAPSE       83.30 TCPU       81.49
 INSULATING STATE - LEVEL SHIFTER    1.00 au
 TOP OF VALENCE BANDS -    BAND    120; K    1; EIG -1.1762093E+00 AU
 BOTTOM OF VIRTUAL BANDS - BAND    121; K    1; EIG -1.4313067E-01 AU
 TTTTTTTTTTTTTTTTTTTTTTTTTTTTTT PDIG        TELAPSE       83.48 TCPU       81.64
 CHARGE NORMALIZATION FACTOR   1.00000000
 TOTAL ATOMIC CHARGES:
   5.9999927   6.0000073   5.9999927   6.0000073   5.9999927   6.0000073
   5.9999927   6.0000073   5.9999927   6.0000073   5.9999927   6.0000073
   5.9999927   6.0000073   5.9999927   6.0000073   5.9999927   6.0000073
   5.9999927   6.0000073   5.9999927   6.0000073   5.9999927   6.0000073
   5.9999927   6.0000073   5.9999927   6.0000073   5.9999927   6.0000073
   5.9999927   6.0000073   5.9999927   6.0000073   5.9999927   6.0000073
   5.9999927   6.0000073   5.9999927   6.0000073
 TTTTTTTTTTTTTTTTTTTTTTTTTTTTTT MOQGAD      TELAPSE       83.54 TCPU       81.70
 TTTTTTTTTTTTTTTTTTTTTTTTTTTTTT SHELLX      TELAPSE       86.94 TCPU       85.10
 TTTTTTTTTTTTTTTTTTTTTTTTTTTTTT MONMO3      TELAPSE       87.10 TCPU       85.16
 NUMERICALLY INTEGRATED DENSITY    239.9997769399
 TTTTTTTTTTTTTTTTTTTTTTTTTTTTTT NUMDFT      TELAPSE       90.22 TCPU       88.26
 CYC  12 ETOT(AU) -1.522146224147E+03 DETOT -3.67E-06 tst  3.91E-06 PX  2.23E-04
 TTTTTTTTTTTTTTTTTTTTTTTTTTTTTT FDIK        TELAPSE       90.29 TCPU       88.32
 INSULATING STATE - LEVEL SHIFTER    1.00 au
 TOP OF VALENCE BANDS -    BAND    120; K    1; EIG -1.1762149E+00 AU
 BOTTOM OF VIRTUAL BANDS - BAND    121; K    1; EIG -1.4311907E-01 AU
 TTTTTTTTTTTTTTTTTTTTTTTTTTTTTT PDIG        TELAPSE       90.45 TCPU       88.47
 CHARGE NORMALIZATION FACTOR   1.00000000
 TOTAL ATOMIC CHARGES:
   5.9999929   6.0000071   5.9999929   6.0000071   5.9999929   6.0000071
   5.9999929   6.0000071   5.9999929   6.0000071   5.9999929   6.0000071
   5.9999929   6.0000071   5.9999929   6.0000071   5.9999929   6.0000071
   5.9999929   6.0000071   5.9999929   6.0000071   5.9999929   6.0000071
   5.9999929   6.0000071   5.9999929   6.0000071   5.9999929   6.0000071
   5.9999929   6.0000071   5.9999929   6.0000071   5.9999929   6.0000071
   5.9999929   6.0000071   5.9999929   6.0000071
 TTTTTTTTTTTTTTTTTTTTTTTTTTTTTT MOQGAD      TELAPSE       90.51 TCPU       88.53
 TTTTTTTTTTTTTTTTTTTTTTTTTTTTTT SHELLX      TELAPSE       93.91 TCPU       91.93
 TTTTTTTTTTTTTTTTTTTTTTTTTTTTTT MONMO3      TELAPSE       94.07 TCPU       91.99
 NUMERICALLY INTEGRATED DENSITY    239.9997769406
 TTTTTTTTTTTTTTTTTTTTTTTTTTTTTT NUMDFT      TELAPSE       97.20 TCPU       95.07
 CYC  13 ETOT(AU) -1.522146226815E+03 DETOT -2.67E-06 tst  3.26E-06 PX  1.30E-04
 TTTTTTTTTTTTTTTTTTTTTTTTTTTTTT FDIK        TELAPSE       97.27 TCPU       95.14
 INSULATING STATE - LEVEL SHIFTER    1.00 au
 TOP OF VALENCE BANDS -    BAND    120; K    1; EIG -1.1762200E+00 AU
 BOTTOM OF VIRTUAL BANDS - BAND    121; K    1; EIG -1.4310885E-01 AU
 TTTTTTTTTTTTTTTTTTTTTTTTTTTTTT PDIG        TELAPSE       97.44 TCPU       95.30
 CHARGE NORMALIZATION FACTOR   1.00000000
 TOTAL ATOMIC CHARGES:
   5.9999932   6.0000068   5.9999932   6.0000068   5.9999932   6.0000068
   5.9999932   6.0000068   5.9999932   6.0000068   5.9999932   6.0000068
   5.9999932   6.0000068   5.9999932   6.0000068   5.9999932   6.0000068
   5.9999932   6.0000068   5.9999932   6.0000068   5.9999932   6.0000068
   5.9999932   6.0000068   5.9999932   6.0000068   5.9999932   6.0000068
   5.9999932   6.0000068   5.9999932   6.0000068   5.9999932   6.0000068
   5.9999932   6.0000068   5.9999932   6.0000068
 TTTTTTTTTTTTTTTTTTTTTTTTTTTTTT MOQGAD      TELAPSE       97.51 TCPU       95.36
 TTTTTTTTTTTTTTTTTTTTTTTTTTTTTT SHELLX      TELAPSE      100.91 TCPU       98.76
 TTTTTTTTTTTTTTTTTTTTTTTTTTTTTT MONMO3      TELAPSE      101.07 TCPU       98.83
 NUMERICALLY INTEGRATED DENSITY    239.9997769430
 TTTTTTTTTTTTTTTTTTTTTTTTTTTTTT NUMDFT      TELAPSE      104.20 TCPU      101.92
 CYC  14 ETOT(AU) -1.522146228700E+03 DETOT -1.88E-06 tst  2.81E-06 PX  7.96E-05
 TTTTTTTTTTTTTTTTTTTTTTTTTTTTTT FDIK        TELAPSE      104.27 TCPU      101.99
 INSULATING STATE - LEVEL SHIFTER    1.00 au
 TOP OF VALENCE BANDS -    BAND    120; K    1; EIG -1.1762247E+00 AU
 BOTTOM OF VIRTUAL BANDS - BAND    121; K    1; EIG -1.4309977E-01 AU
 TTTTTTTTTTTTTTTTTTTTTTTTTTTTTT PDIG        TELAPSE      104.44 TCPU      102.15
 CHARGE NORMALIZATION FACTOR   1.00000000
 TOTAL ATOMIC CHARGES:
   5.9999932   6.0000068   5.9999932   6.0000068   5.9999932   6.0000068
   5.9999932   6.0000068   5.9999932   6.0000068   5.9999932   6.0000068
   5.9999932   6.0000068   5.9999932   6.0000068   5.9999932   6.0000068
   5.9999932   6.0000068   5.9999932   6.0000068   5.9999932   6.0000068
   5.9999932   6.0000068   5.9999932   6.0000068   5.9999932   6.0000068
   5.9999932   6.0000068   5.9999932   6.0000068   5.9999932   6.0000068
   5.9999932   6.0000068   5.9999932   6.0000068
 TTTTTTTTTTTTTTTTTTTTTTTTTTTTTT MOQGAD      TELAPSE      104.50 TCPU      102.21
 TTTTTTTTTTTTTTTTTTTTTTTTTTTTTT SHELLX      TELAPSE      107.90 TCPU      105.61
 TTTTTTTTTTTTTTTTTTTTTTTTTTTTTT MONMO3      TELAPSE      108.06 TCPU      105.67
 NUMERICALLY INTEGRATED DENSITY    239.9997769460
 TTTTTTTTTTTTTTTTTTTTTTTTTTTTTT NUMDFT      TELAPSE      111.19 TCPU      108.79
 CYC  15 ETOT(AU) -1.522146230187E+03 DETOT -1.49E-06 tst  2.42E-06 PX  4.52E-05
 TTTTTTTTTTTTTTTTTTTTTTTTTTTTTT FDIK        TELAPSE      111.26 TCPU      108.85
 INSULATING STATE - LEVEL SHIFTER    1.00 au
 TOP OF VALENCE BANDS -    BAND    120; K    1; EIG -1.1762290E+00 AU
 BOTTOM OF VIRTUAL BANDS - BAND    121; K    1; EIG -1.4309190E-01 AU
 TTTTTTTTTTTTTTTTTTTTTTTTTTTTTT PDIG        TELAPSE      111.44 TCPU      109.02
 CHARGE NORMALIZATION FACTOR   1.00000000
 TOTAL ATOMIC CHARGES:
   5.9999934   6.0000066   5.9999934   6.0000066   5.9999934   6.0000066
   5.9999934   6.0000066   5.9999934   6.0000066   5.9999934   6.0000066
   5.9999934   6.0000066   5.9999934   6.0000066   5.9999934   6.0000066
   5.9999934   6.0000066   5.9999934   6.0000066   5.9999934   6.0000066
   5.9999934   6.0000066   5.9999934   6.0000066   5.9999934   6.0000066
   5.9999934   6.0000066   5.9999934   6.0000066   5.9999934   6.0000066
   5.9999934   6.0000066   5.9999934   6.0000066
 TTTTTTTTTTTTTTTTTTTTTTTTTTTTTT MOQGAD      TELAPSE      111.50 TCPU      109.08
 TTTTTTTTTTTTTTTTTTTTTTTTTTTTTT SHELLX      TELAPSE      114.90 TCPU      112.48
 TTTTTTTTTTTTTTTTTTTTTTTTTTTTTT MONMO3      TELAPSE      115.06 TCPU      112.54
 NUMERICALLY INTEGRATED DENSITY    239.9997769493
 TTTTTTTTTTTTTTTTTTTTTTTTTTTTTT NUMDFT      TELAPSE      118.19 TCPU      115.64
 CYC  16 ETOT(AU) -1.522146231220E+03 DETOT -1.03E-06 tst  2.08E-06 PX  2.81E-05
 TTTTTTTTTTTTTTTTTTTTTTTTTTTTTT FDIK        TELAPSE      118.26 TCPU      115.71
 INSULATING STATE - LEVEL SHIFTER    1.00 au
 TOP OF VALENCE BANDS -    BAND    120; K    1; EIG -1.1762330E+00 AU
 BOTTOM OF VIRTUAL BANDS - BAND    121; K    1; EIG -1.4308497E-01 AU
 TTTTTTTTTTTTTTTTTTTTTTTTTTTTTT PDIG        TELAPSE      118.44 TCPU      115.87
 CHARGE NORMALIZATION FACTOR   1.00000000
 TOTAL ATOMIC CHARGES:
   5.9999934   6.0000066   5.9999934   6.0000066   5.9999934   6.0000066
   5.9999934   6.0000066   5.9999934   6.0000066   5.9999934   6.0000066
   5.9999934   6.0000066   5.9999934   6.0000066   5.9999934   6.0000066
   5.9999934   6.0000066   5.9999934   6.0000066   5.9999934   6.0000066
   5.9999934   6.0000066   5.9999934   6.0000066   5.9999934   6.0000066
   5.9999934   6.0000066   5.9999934   6.0000066   5.9999934   6.0000066
   5.9999934   6.0000066   5.9999934   6.0000066
 TTTTTTTTTTTTTTTTTTTTTTTTTTTTTT MOQGAD      TELAPSE      118.50 TCPU      115.93
 TTTTTTTTTTTTTTTTTTTTTTTTTTTTTT SHELLX      TELAPSE      121.90 TCPU      119.33
 TTTTTTTTTTTTTTTTTTTTTTTTTTTTTT MONMO3      TELAPSE      122.07 TCPU      119.39
 NUMERICALLY INTEGRATED DENSITY    239.9997769524
 TTTTTTTTTTTTTTTTTTTTTTTTTTTTTT NUMDFT      TELAPSE      125.19 TCPU      122.50
 CYC  17 ETOT(AU) -1.522146232079E+03 DETOT -8.59E-07 tst  1.78E-06 PX  2.44E-05
 TTTTTTTTTTTTTTTTTTTTTTTTTTTTTT FDIK        TELAPSE      125.26 TCPU      122.57
 INSULATING STATE - LEVEL SHIFTER    1.00 au
 TOP OF VALENCE BANDS -    BAND    120; K    1; EIG -1.1762369E+00 AU
 BOTTOM OF VIRTUAL BANDS - BAND    121; K    1; EIG -1.4307898E-01 AU
 TTTTTTTTTTTTTTTTTTTTTTTTTTTTTT PDIG        TELAPSE      125.43 TCPU      122.71
 CHARGE NORMALIZATION FACTOR   1.00000000
 TOTAL ATOMIC CHARGES:
   5.9999934   6.0000066   5.9999934   6.0000066   5.9999934   6.0000066
   5.9999934   6.0000066   5.9999934   6.0000066   5.9999934   6.0000066
   5.9999934   6.0000066   5.9999934   6.0000066   5.9999934   6.0000066
   5.9999934   6.0000066   5.9999934   6.0000066   5.9999934   6.0000066
   5.9999934   6.0000066   5.9999934   6.0000066   5.9999934   6.0000066
   5.9999934   6.0000066   5.9999934   6.0000066   5.9999934   6.0000066
   5.9999934   6.0000066   5.9999934   6.0000066
 TTTTTTTTTTTTTTTTTTTTTTTTTTTTTT MOQGAD      TELAPSE      125.49 TCPU      122.77
 TTTTTTTTTTTTTTTTTTTTTTTTTTTTTT SHELLX      TELAPSE      128.89 TCPU      126.17
 TTTTTTTTTTTTTTTTTTTTTTTTTTTTTT MONMO3      TELAPSE      129.05 TCPU      126.23
 NUMERICALLY INTEGRATED DENSITY    239.9997769554
 TTTTTTTTTTTTTTTTTTTTTTTTTTTTTT NUMDFT      TELAPSE      132.18 TCPU      129.32
 CYC  18 ETOT(AU) -1.522146232759E+03 DETOT -6.80E-07 tst  1.53E-06 PX  2.12E-05
 TTTTTTTTTTTTTTTTTTTTTTTTTTTTTT FDIK        TELAPSE      132.24 TCPU      129.38
 INSULATING STATE - LEVEL SHIFTER    1.00 au
 TOP OF VALENCE BANDS -    BAND    120; K    1; EIG -1.1762403E+00 AU
 BOTTOM OF VIRTUAL BANDS - BAND    121; K    1; EIG -1.4307367E-01 AU
 TTTTTTTTTTTTTTTTTTTTTTTTTTTTTT PDIG        TELAPSE      132.43 TCPU      129.55
 CHARGE NORMALIZATION FACTOR   1.00000000
 TOTAL ATOMIC CHARGES:
   5.9999934   6.0000066   5.9999934   6.0000066   5.9999934   6.0000066
   5.9999934   6.0000066   5.9999934   6.0000066   5.9999934   6.0000066
   5.9999934   6.0000066   5.9999934   6.0000066   5.9999934   6.0000066
   5.9999934   6.0000066   5.9999934   6.0000066   5.9999934   6.0000066
   5.9999934   6.0000066   5.9999934   6.0000066   5.9999934   6.0000066
   5.9999934   6.0000066   5.9999934   6.0000066   5.9999934   6.0000066
   5.9999934   6.0000066   5.9999934   6.0000066
 TTTTTTTTTTTTTTTTTTTTTTTTTTTTTT MOQGAD      TELAPSE      132.49 TCPU      129.61
 TTTTTTTTTTTTTTTTTTTTTTTTTTTTTT SHELLX      TELAPSE      135.89 TCPU      133.01
 TTTTTTTTTTTTTTTTTTTTTTTTTTTTTT MONMO3      TELAPSE      136.05 TCPU      133.07
 NUMERICALLY INTEGRATED DENSITY    239.9997769581
 TTTTTTTTTTTTTTTTTTTTTTTTTTTTTT NUMDFT      TELAPSE      139.19 TCPU      136.15
 CYC  19 ETOT(AU) -1.522146233281E+03 DETOT -5.22E-07 tst  1.31E-06 PX  1.89E-05
 TTTTTTTTTTTTTTTTTTTTTTTTTTTTTT FDIK        TELAPSE      139.26 TCPU      136.22
 INSULATING STATE - LEVEL SHIFTER    1.00 au
 TOP OF VALENCE BANDS -    BAND    120; K    1; EIG -1.1762436E+00 AU
 BOTTOM OF VIRTUAL BANDS - BAND    121; K    1; EIG -1.4306903E-01 AU
 TTTTTTTTTTTTTTTTTTTTTTTTTTTTTT PDIG        TELAPSE      139.44 TCPU      136.38
 CHARGE NORMALIZATION FACTOR   1.00000000
 TOTAL ATOMIC CHARGES:
   5.9999934   6.0000066   5.9999934   6.0000066   5.9999934   6.0000066
   5.9999934   6.0000066   5.9999934   6.0000066   5.9999934   6.0000066
   5.9999934   6.0000066   5.9999934   6.0000066   5.9999934   6.0000066
   5.9999934   6.0000066   5.9999934   6.0000066   5.9999934   6.0000066
   5.9999934   6.0000066   5.9999934   6.0000066   5.9999934   6.0000066
   5.9999934   6.0000066   5.9999934   6.0000066   5.9999934   6.0000066
   5.9999934   6.0000066   5.9999934   6.0000066
 TTTTTTTTTTTTTTTTTTTTTTTTTTTTTT MOQGAD      TELAPSE      139.50 TCPU      136.44
 TTTTTTTTTTTTTTTTTTTTTTTTTTTTTT SHELLX      TELAPSE      142.90 TCPU      139.84
 TTTTTTTTTTTTTTTTTTTTTTTTTTTTTT MONMO3      TELAPSE      143.05 TCPU      139.90
 NUMERICALLY INTEGRATED DENSITY    239.9997769606
 TTTTTTTTTTTTTTTTTTTTTTTTTTTTTT NUMDFT      TELAPSE      146.20 TCPU      142.98
 CYC  20 ETOT(AU) -1.522146233693E+03 DETOT -4.12E-07 tst  1.12E-06 PX  1.69E-05
 TTTTTTTTTTTTTTTTTTTTTTTTTTTTTT FDIK        TELAPSE      146.27 TCPU      143.04
 INSULATING STATE - LEVEL SHIFTER    1.00 au
 TOP OF VALENCE BANDS -    BAND    120; K    1; EIG -1.1762465E+00 AU
 BOTTOM OF VIRTUAL BANDS - BAND    121; K    1; EIG -1.4306486E-01 AU
 TTTTTTTTTTTTTTTTTTTTTTTTTTTTTT PDIG        TELAPSE      146.45 TCPU      143.22
 CHARGE NORMALIZATION FACTOR   1.00000000
 TOTAL ATOMIC CHARGES:
   5.9999934   6.0000066   5.9999934   6.0000066   5.9999934   6.0000066
   5.9999934   6.0000066   5.9999934   6.0000066   5.9999934   6.0000066
   5.9999934   6.0000066   5.9999934   6.0000066   5.9999934   6.0000066
   5.9999934   6.0000066   5.9999934   6.0000066   5.9999934   6.0000066
   5.9999934   6.0000066   5.9999934   6.0000066   5.9999934   6.0000066
   5.9999934   6.0000066   5.9999934   6.0000066   5.9999934   6.0000066
   5.9999934   6.0000066   5.9999934   6.0000066
 TTTTTTTTTTTTTTTTTTTTTTTTTTTTTT MOQGAD      TELAPSE      146.51 TCPU      143.28
 TTTTTTTTTTTTTTTTTTTTTTTTTTTTTT SHELLX      TELAPSE      149.91 TCPU      146.68
 TTTTTTTTTTTTTTTTTTTTTTTTTTTTTT MONMO3      TELAPSE      150.07 TCPU      146.74
 NUMERICALLY INTEGRATED DENSITY    239.9997769629
 TTTTTTTTTTTTTTTTTTTTTTTTTTTTTT NUMDFT      TELAPSE      153.20 TCPU      149.83
 CYC  21 ETOT(AU) -1.522146234046E+03 DETOT -3.53E-07 tst  9.59E-07 PX  1.50E-05
 TTTTTTTTTTTTTTTTTTTTTTTTTTTTTT FDIK        TELAPSE      153.27 TCPU      149.90
 INSULATING STATE - LEVEL SHIFTER    1.00 au
 TOP OF VALENCE BANDS -    BAND    120; K    1; EIG -1.1762492E+00 AU
 BOTTOM OF VIRTUAL BANDS - BAND    121; K    1; EIG -1.4306119E-01 AU
 TTTTTTTTTTTTTTTTTTTTTTTTTTTTTT PDIG        TELAPSE      153.45 TCPU      150.07
 CHARGE NORMALIZATION FACTOR   1.00000000
 TOTAL ATOMIC CHARGES:
   5.9999934   6.0000066   5.9999934   6.0000066   5.9999934   6.0000066
   5.9999934   6.0000066   5.9999934   6.0000066   5.9999934   6.0000066
   5.9999934   6.0000066   5.9999934   6.0000066   5.9999934   6.0000066
   5.9999934   6.0000066   5.9999934   6.0000066   5.9999934   6.0000066
   5.9999934   6.0000066   5.9999934   6.0000066   5.9999934   6.0000066
   5.9999934   6.0000066   5.9999934   6.0000066   5.9999934   6.0000066
   5.9999934   6.0000066   5.9999934   6.0000066
 TTTTTTTTTTTTTTTTTTTTTTTTTTTTTT MOQGAD      TELAPSE      153.51 TCPU      150.13
 TTTTTTTTTTTTTTTTTTTTTTTTTTTTTT SHELLX      TELAPSE      156.91 TCPU      153.53
 TTTTTTTTTTTTTTTTTTTTTTTTTTTTTT MONMO3      TELAPSE      157.07 TCPU      153.59
 NUMERICALLY INTEGRATED DENSITY    239.9997769649
 TTTTTTTTTTTTTTTTTTTTTTTTTTTTTT NUMDFT      TELAPSE      160.18 TCPU      156.68
 CYC  22 ETOT(AU) -1.522146234318E+03 DETOT -2.72E-07 tst  8.20E-07 PX  1.34E-05
 TTTTTTTTTTTTTTTTTTTTTTTTTTTTTT FDIK        TELAPSE      160.25 TCPU      156.74
 INSULATING STATE - LEVEL SHIFTER    1.00 au
 TOP OF VALENCE BANDS -    BAND    120; K    1; EIG -1.1762517E+00 AU
 BOTTOM OF VIRTUAL BANDS - BAND    121; K    1; EIG -1.4305790E-01 AU
 TTTTTTTTTTTTTTTTTTTTTTTTTTTTTT PDIG        TELAPSE      160.43 TCPU      156.91
 CHARGE NORMALIZATION FACTOR   1.00000000
 TOTAL ATOMIC CHARGES:
   5.9999934   6.0000066   5.9999934   6.0000066   5.9999934   6.0000066
   5.9999934   6.0000066   5.9999934   6.0000066   5.9999934   6.0000066
   5.9999934   6.0000066   5.9999934   6.0000066   5.9999934   6.0000066
   5.9999934   6.0000066   5.9999934   6.0000066   5.9999934   6.0000066
   5.9999934   6.0000066   5.9999934   6.0000066   5.9999934   6.0000066
   5.9999934   6.0000066   5.9999934   6.0000066   5.9999934   6.0000066
   5.9999934   6.0000066   5.9999934   6.0000066
 TTTTTTTTTTTTTTTTTTTTTTTTTTTTTT MOQGAD      TELAPSE      160.49 TCPU      156.97
 TTTTTTTTTTTTTTTTTTTTTTTTTTTTTT SHELLX      TELAPSE      163.89 TCPU      160.37
 TTTTTTTTTTTTTTTTTTTTTTTTTTTTTT MONMO3      TELAPSE      164.05 TCPU      160.43
 NUMERICALLY INTEGRATED DENSITY    239.9997769667
 TTTTTTTTTTTTTTTTTTTTTTTTTTTTTT NUMDFT      TELAPSE      167.18 TCPU      163.53
 CYC  23 ETOT(AU) -1.522146234545E+03 DETOT -2.27E-07 tst  7.01E-07 PX  1.19E-05
 TTTTTTTTTTTTTTTTTTTTTTTTTTTTTT FDIK        TELAPSE      167.25 TCPU      163.59
 INSULATING STATE - LEVEL SHIFTER    1.00 au
 TOP OF VALENCE BANDS -    BAND    120; K    1; EIG -1.1762539E+00 AU
 BOTTOM OF VIRTUAL BANDS - BAND    121; K    1; EIG -1.4305496E-01 AU
 TTTTTTTTTTTTTTTTTTTTTTTTTTTTTT PDIG        TELAPSE      167.42 TCPU      163.74
 CHARGE NORMALIZATION FACTOR   1.00000000
 TOTAL ATOMIC CHARGES:
   5.9999934   6.0000066   5.9999934   6.0000066   5.9999934   6.0000066
   5.9999934   6.0000066   5.9999934   6.0000066   5.9999934   6.0000066
   5.9999934   6.0000066   5.9999934   6.0000066   5.9999934   6.0000066
   5.9999934   6.0000066   5.9999934   6.0000066   5.9999934   6.0000066
   5.9999934   6.0000066   5.9999934   6.0000066   5.9999934   6.0000066
   5.9999934   6.0000066   5.9999934   6.0000066   5.9999934   6.0000066
   5.9999934   6.0000066   5.9999934   6.0000066
 TTTTTTTTTTTTTTTTTTTTTTTTTTTTTT MOQGAD      TELAPSE      167.48 TCPU      163.80
 TTTTTTTTTTTTTTTTTTTTTTTTTTTTTT SHELLX      TELAPSE      170.88 TCPU      167.20
 TTTTTTTTTTTTTTTTTTTTTTTTTTTTTT MONMO3      TELAPSE      171.04 TCPU      167.26
 NUMERICALLY INTEGRATED DENSITY    239.9997769684
 TTTTTTTTTTTTTTTTTTTTTTTTTTTTTT NUMDFT      TELAPSE      174.17 TCPU      170.38
 CYC  24 ETOT(AU) -1.522146234733E+03 DETOT -1.88E-07 tst  5.99E-07 PX  1.07E-05
 TTTTTTTTTTTTTTTTTTTTTTTTTTTTTT FDIK        TELAPSE      174.24 TCPU      170.45
 INSULATING STATE - LEVEL SHIFTER    1.00 au
 TOP OF VALENCE BANDS -    BAND    120; K    1; EIG -1.1762560E+00 AU
 BOTTOM OF VIRTUAL BANDS - BAND    121; K    1; EIG -1.4305234E-01 AU
 TTTTTTTTTTTTTTTTTTTTTTTTTTTTTT PDIG        TELAPSE      174.41 TCPU      170.61
 CHARGE NORMALIZATION FACTOR   1.00000000
 TOTAL ATOMIC CHARGES:
   5.9999934   6.0000066   5.9999934   6.0000066   5.9999934   6.0000066
   5.9999934   6.0000066   5.9999934   6.0000066   5.9999934   6.0000066
   5.9999934   6.0000066   5.9999934   6.0000066   5.9999934   6.0000066
   5.9999934   6.0000066   5.9999934   6.0000066   5.9999934   6.0000066
   5.9999934   6.0000066   5.9999934   6.0000066   5.9999934   6.0000066
   5.9999934   6.0000066   5.9999934   6.0000066   5.9999934   6.0000066
   5.9999934   6.0000066   5.9999934   6.0000066
 TTTTTTTTTTTTTTTTTTTTTTTTTTTTTT MOQGAD      TELAPSE      174.47 TCPU      170.67
 TTTTTTTTTTTTTTTTTTTTTTTTTTTTTT SHELLX      TELAPSE      177.87 TCPU      174.07
 TTTTTTTTTTTTTTTTTTTTTTTTTTTTTT MONMO3      TELAPSE      178.03 TCPU      174.13
 NUMERICALLY INTEGRATED DENSITY    239.9997769698
 TTTTTTTTTTTTTTTTTTTTTTTTTTTTTT NUMDFT      TELAPSE      181.15 TCPU      177.24
 CYC  25 ETOT(AU) -1.522146234910E+03 DETOT -1.77E-07 tst  5.12E-07 PX  9.57E-06
 TTTTTTTTTTTTTTTTTTTTTTTTTTTTTT FDIK        TELAPSE      181.22 TCPU      177.31
 INSULATING STATE - LEVEL SHIFTER    1.00 au
 TOP OF VALENCE BANDS -    BAND    120; K    1; EIG -1.1762579E+00 AU
 BOTTOM OF VIRTUAL BANDS - BAND    121; K    1; EIG -1.4305000E-01 AU
 TTTTTTTTTTTTTTTTTTTTTTTTTTTTTT PDIG        TELAPSE      181.39 TCPU      177.47
 CHARGE NORMALIZATION FACTOR   1.00000000
 TOTAL ATOMIC CHARGES:
   5.9999934   6.0000066   5.9999934   6.0000066   5.9999934   6.0000066
   5.9999934   6.0000066   5.9999934   6.0000066   5.9999934   6.0000066
   5.9999934   6.0000066   5.9999934   6.0000066   5.9999934   6.0000066
   5.9999934   6.0000066   5.9999934   6.0000066   5.9999934   6.0000066
   5.9999934   6.0000066   5.9999934   6.0000066   5.9999934   6.0000066
   5.9999934   6.0000066   5.9999934   6.0000066   5.9999934   6.0000066
   5.9999934   6.0000066   5.9999934   6.0000066
 TTTTTTTTTTTTTTTTTTTTTTTTTTTTTT MOQGAD      TELAPSE      181.46 TCPU      177.53
 TTTTTTTTTTTTTTTTTTTTTTTTTTTTTT SHELLX      TELAPSE      184.86 TCPU      180.93
 TTTTTTTTTTTTTTTTTTTTTTTTTTTTTT MONMO3      TELAPSE      185.02 TCPU      180.99
 NUMERICALLY INTEGRATED DENSITY    239.9997769711
 TTTTTTTTTTTTTTTTTTTTTTTTTTTTTT NUMDFT      TELAPSE      188.13 TCPU      184.07
 CYC  26 ETOT(AU) -1.522146235069E+03 DETOT -1.59E-07 tst  4.37E-07 PX  8.55E-06
 TTTTTTTTTTTTTTTTTTTTTTTTTTTTTT FDIK        TELAPSE      188.21 TCPU      184.15
 INSULATING STATE - LEVEL SHIFTER    1.00 au
 TOP OF VALENCE BANDS -    BAND    120; K    1; EIG -1.1762596E+00 AU
 BOTTOM OF VIRTUAL BANDS - BAND    121; K    1; EIG -1.4304790E-01 AU
 TTTTTTTTTTTTTTTTTTTTTTTTTTTTTT PDIG        TELAPSE      188.37 TCPU      184.30
 CHARGE NORMALIZATION FACTOR   1.00000000
 TOTAL ATOMIC CHARGES:
   5.9999934   6.0000066   5.9999934   6.0000066   5.9999934   6.0000066
   5.9999934   6.0000066   5.9999934   6.0000066   5.9999934   6.0000066
   5.9999934   6.0000066   5.9999934   6.0000066   5.9999934   6.0000066
   5.9999934   6.0000066   5.9999934   6.0000066   5.9999934   6.0000066
   5.9999934   6.0000066   5.9999934   6.0000066   5.9999934   6.0000066
   5.9999934   6.0000066   5.9999934   6.0000066   5.9999934   6.0000066
   5.9999934   6.0000066   5.9999934   6.0000066
 TTTTTTTTTTTTTTTTTTTTTTTTTTTTTT MOQGAD      TELAPSE      188.44 TCPU      184.37
 TTTTTTTTTTTTTTTTTTTTTTTTTTTTTT SHELLX      TELAPSE      191.83 TCPU      187.77
 TTTTTTTTTTTTTTTTTTTTTTTTTTTTTT MONMO3      TELAPSE      191.99 TCPU      187.83
 NUMERICALLY INTEGRATED DENSITY    239.9997769723
 TTTTTTTTTTTTTTTTTTTTTTTTTTTTTT NUMDFT      TELAPSE      195.12 TCPU      190.94
 CYC  27 ETOT(AU) -1.522146235191E+03 DETOT -1.22E-07 tst  3.73E-07 PX  7.64E-06
 TTTTTTTTTTTTTTTTTTTTTTTTTTTTTT FDIK        TELAPSE      195.20 TCPU      191.01
 INSULATING STATE - LEVEL SHIFTER    1.00 au
 TOP OF VALENCE BANDS -    BAND    120; K    1; EIG -1.1762611E+00 AU
 BOTTOM OF VIRTUAL BANDS - BAND    121; K    1; EIG -1.4304598E-01 AU
 TTTTTTTTTTTTTTTTTTTTTTTTTTTTTT PDIG        TELAPSE      195.37 TCPU      191.15
 CHARGE NORMALIZATION FACTOR   1.00000000
 TOTAL ATOMIC CHARGES:
   5.9999934   6.0000066   5.9999934   6.0000066   5.9999934   6.0000066
   5.9999934   6.0000066   5.9999934   6.0000066   5.9999934   6.0000066
   5.9999934   6.0000066   5.9999934   6.0000066   5.9999934   6.0000066
   5.9999934   6.0000066   5.9999934   6.0000066   5.9999934   6.0000066
   5.9999934   6.0000066   5.9999934   6.0000066   5.9999934   6.0000066
   5.9999934   6.0000066   5.9999934   6.0000066   5.9999934   6.0000066
   5.9999934   6.0000066   5.9999934   6.0000066
 TTTTTTTTTTTTTTTTTTTTTTTTTTTTTT MOQGAD      TELAPSE      195.43 TCPU      191.22
 TTTTTTTTTTTTTTTTTTTTTTTTTTTTTT SHELLX      TELAPSE      198.83 TCPU      194.62
 TTTTTTTTTTTTTTTTTTTTTTTTTTTTTT MONMO3      TELAPSE      198.99 TCPU      194.68
 NUMERICALLY INTEGRATED DENSITY    239.9997769734
 TTTTTTTTTTTTTTTTTTTTTTTTTTTTTT NUMDFT      TELAPSE      202.13 TCPU      197.76
 CYC  28 ETOT(AU) -1.522146235302E+03 DETOT -1.11E-07 tst  3.18E-07 PX  6.84E-06
 TTTTTTTTTTTTTTTTTTTTTTTTTTTTTT FDIK        TELAPSE      202.20 TCPU      197.83
 INSULATING STATE - LEVEL SHIFTER    1.00 au
 TOP OF VALENCE BANDS -    BAND    120; K    1; EIG -1.1762625E+00 AU
 BOTTOM OF VIRTUAL BANDS - BAND    121; K    1; EIG -1.4304427E-01 AU
 TTTTTTTTTTTTTTTTTTTTTTTTTTTTTT PDIG        TELAPSE      202.37 TCPU      197.99
 CHARGE NORMALIZATION FACTOR   1.00000000
 TOTAL ATOMIC CHARGES:
   5.9999934   6.0000066   5.9999934   6.0000066   5.9999934   6.0000066
   5.9999934   6.0000066   5.9999934   6.0000066   5.9999934   6.0000066
   5.9999934   6.0000066   5.9999934   6.0000066   5.9999934   6.0000066
   5.9999934   6.0000066   5.9999934   6.0000066   5.9999934   6.0000066
   5.9999934   6.0000066   5.9999934   6.0000066   5.9999934   6.0000066
   5.9999934   6.0000066   5.9999934   6.0000066   5.9999934   6.0000066
   5.9999934   6.0000066   5.9999934   6.0000066
 TTTTTTTTTTTTTTTTTTTTTTTTTTTTTT MOQGAD      TELAPSE      202.43 TCPU      198.05
 TTTTTTTTTTTTTTTTTTTTTTTTTTTTTT SHELLX      TELAPSE      205.83 TCPU      201.44
 TTTTTTTTTTTTTTTTTTTTTTTTTTTTTT MONMO3      TELAPSE      205.99 TCPU      201.51
 NUMERICALLY INTEGRATED DENSITY    239.9997769744
 TTTTTTTTTTTTTTTTTTTTTTTTTTTTTT NUMDFT      TELAPSE      209.13 TCPU      204.58
 CYC  29 ETOT(AU) -1.522146235403E+03 DETOT -1.01E-07 tst  2.71E-07 PX  6.15E-06
 TTTTTTTTTTTTTTTTTTTTTTTTTTTTTT FDIK        TELAPSE      209.20 TCPU      204.65
 INSULATING STATE - LEVEL SHIFTER    1.00 au
 TOP OF VALENCE BANDS -    BAND    120; K    1; EIG -1.1762638E+00 AU
 BOTTOM OF VIRTUAL BANDS - BAND    121; K    1; EIG -1.4304272E-01 AU
 TTTTTTTTTTTTTTTTTTTTTTTTTTTTTT PDIG        TELAPSE      209.37 TCPU      204.80
 CHARGE NORMALIZATION FACTOR   1.00000000
 TOTAL ATOMIC CHARGES:
   5.9999934   6.0000066   5.9999934   6.0000066   5.9999934   6.0000066
   5.9999934   6.0000066   5.9999934   6.0000066   5.9999934   6.0000066
   5.9999934   6.0000066   5.9999934   6.0000066   5.9999934   6.0000066
   5.9999934   6.0000066   5.9999934   6.0000066   5.9999934   6.0000066
   5.9999934   6.0000066   5.9999934   6.0000066   5.9999934   6.0000066
   5.9999934   6.0000066   5.9999934   6.0000066   5.9999934   6.0000066
   5.9999934   6.0000066   5.9999934   6.0000066
 TTTTTTTTTTTTTTTTTTTTTTTTTTTTTT MOQGAD      TELAPSE      209.43 TCPU      204.86
 TTTTTTTTTTTTTTTTTTTTTTTTTTTTTT SHELLX      TELAPSE      212.83 TCPU      208.26
 TTTTTTTTTTTTTTTTTTTTTTTTTTTTTT MONMO3      TELAPSE      212.99 TCPU      208.32
 NUMERICALLY INTEGRATED DENSITY    239.9997769752
 TTTTTTTTTTTTTTTTTTTTTTTTTTTTTT NUMDFT      TELAPSE      216.12 TCPU      211.43
 CYC  30 ETOT(AU) -1.522146235494E+03 DETOT -9.04E-08 tst  2.31E-07 PX  5.54E-06
 TTTTTTTTTTTTTTTTTTTTTTTTTTTTTT FDIK        TELAPSE      216.19 TCPU      211.50
 INSULATING STATE - LEVEL SHIFTER    1.00 au
 TOP OF VALENCE BANDS -    BAND    120; K    1; EIG -1.1762650E+00 AU
 BOTTOM OF VIRTUAL BANDS - BAND    121; K    1; EIG -1.4304132E-01 AU
 TTTTTTTTTTTTTTTTTTTTTTTTTTTTTT PDIG        TELAPSE      216.35 TCPU      211.65
 CHARGE NORMALIZATION FACTOR   1.00000000
 TOTAL ATOMIC CHARGES:
   5.9999934   6.0000066   5.9999934   6.0000066   5.9999934   6.0000066
   5.9999934   6.0000066   5.9999934   6.0000066   5.9999934   6.0000066
   5.9999934   6.0000066   5.9999934   6.0000066   5.9999934   6.0000066
   5.9999934   6.0000066   5.9999934   6.0000066   5.9999934   6.0000066
   5.9999934   6.0000066   5.9999934   6.0000066   5.9999934   6.0000066
   5.9999934   6.0000066   5.9999934   6.0000066   5.9999934   6.0000066
   5.9999934   6.0000066   5.9999934   6.0000066
 TTTTTTTTTTTTTTTTTTTTTTTTTTTTTT MOQGAD      TELAPSE      216.41 TCPU      211.71
 TTTTTTTTTTTTTTTTTTTTTTTTTTTTTT SHELLX      TELAPSE      219.81 TCPU      215.11
 TTTTTTTTTTTTTTTTTTTTTTTTTTTTTT MONMO3      TELAPSE      219.97 TCPU      215.17
 NUMERICALLY INTEGRATED DENSITY    239.9997769760
 TTTTTTTTTTTTTTTTTTTTTTTTTTTTTT NUMDFT      TELAPSE      223.10 TCPU      218.28
 CYC  31 ETOT(AU) -1.522146235576E+03 DETOT -8.21E-08 tst  1.97E-07 PX  4.96E-06
 TTTTTTTTTTTTTTTTTTTTTTTTTTTTTT FDIK        TELAPSE      223.18 TCPU      218.35
 INSULATING STATE - LEVEL SHIFTER    1.00 au
 TOP OF VALENCE BANDS -    BAND    120; K    1; EIG -1.1762660E+00 AU
 BOTTOM OF VIRTUAL BANDS - BAND    121; K    1; EIG -1.4304005E-01 AU
 TTTTTTTTTTTTTTTTTTTTTTTTTTTTTT PDIG        TELAPSE      223.36 TCPU      218.52
 CHARGE NORMALIZATION FACTOR   1.00000000
 TOTAL ATOMIC CHARGES:
   5.9999934   6.0000066   5.9999934   6.0000066   5.9999934   6.0000066
   5.9999934   6.0000066   5.9999934   6.0000066   5.9999934   6.0000066
   5.9999934   6.0000066   5.9999934   6.0000066   5.9999934   6.0000066
   5.9999934   6.0000066   5.9999934   6.0000066   5.9999934   6.0000066
   5.9999934   6.0000066   5.9999934   6.0000066   5.9999934   6.0000066
   5.9999934   6.0000066   5.9999934   6.0000066   5.9999934   6.0000066
   5.9999934   6.0000066   5.9999934   6.0000066
 TTTTTTTTTTTTTTTTTTTTTTTTTTTTTT MOQGAD      TELAPSE      223.42 TCPU      218.58
 TTTTTTTTTTTTTTTTTTTTTTTTTTTTTT SHELLX      TELAPSE      226.82 TCPU      221.98
 TTTTTTTTTTTTTTTTTTTTTTTTTTTTTT MONMO3      TELAPSE      226.98 TCPU      222.04
 NUMERICALLY INTEGRATED DENSITY    239.9997769767
 TTTTTTTTTTTTTTTTTTTTTTTTTTTTTT NUMDFT      TELAPSE      230.11 TCPU      225.13
 CYC  32 ETOT(AU) -1.522146235645E+03 DETOT -6.91E-08 tst  1.68E-07 PX  4.47E-06
 TTTTTTTTTTTTTTTTTTTTTTTTTTTTTT FDIK        TELAPSE      230.18 TCPU      225.21
 INSULATING STATE - LEVEL SHIFTER    1.00 au
 TOP OF VALENCE BANDS -    BAND    120; K    1; EIG -1.1762670E+00 AU
 BOTTOM OF VIRTUAL BANDS - BAND    121; K    1; EIG -1.4303890E-01 AU
 TTTTTTTTTTTTTTTTTTTTTTTTTTTTTT PDIG        TELAPSE      230.35 TCPU      225.37
 CHARGE NORMALIZATION FACTOR   1.00000000
 TOTAL ATOMIC CHARGES:
   5.9999934   6.0000066   5.9999934   6.0000066   5.9999934   6.0000066
   5.9999934   6.0000066   5.9999934   6.0000066   5.9999934   6.0000066
   5.9999934   6.0000066   5.9999934   6.0000066   5.9999934   6.0000066
   5.9999934   6.0000066   5.9999934   6.0000066   5.9999934   6.0000066
   5.9999934   6.0000066   5.9999934   6.0000066   5.9999934   6.0000066
   5.9999934   6.0000066   5.9999934   6.0000066   5.9999934   6.0000066
   5.9999934   6.0000066   5.9999934   6.0000066
 TTTTTTTTTTTTTTTTTTTTTTTTTTTTTT MOQGAD      TELAPSE      230.41 TCPU      225.43
 TTTTTTTTTTTTTTTTTTTTTTTTTTTTTT SHELLX      TELAPSE      233.81 TCPU      228.82
 TTTTTTTTTTTTTTTTTTTTTTTTTTTTTT MONMO3      TELAPSE      233.97 TCPU      228.89
 NUMERICALLY INTEGRATED DENSITY    239.9997769774
 TTTTTTTTTTTTTTTTTTTTTTTTTTTTTT NUMDFT      TELAPSE      237.11 TCPU      231.97
 CYC  33 ETOT(AU) -1.522146235702E+03 DETOT -5.77E-08 tst  1.43E-07 PX  4.02E-06
 TTTTTTTTTTTTTTTTTTTTTTTTTTTTTT FDIK        TELAPSE      237.18 TCPU      232.04
 INSULATING STATE - LEVEL SHIFTER    1.00 au
 TOP OF VALENCE BANDS -    BAND    120; K    1; EIG -1.1762679E+00 AU
 BOTTOM OF VIRTUAL BANDS - BAND    121; K    1; EIG -1.4303785E-01 AU
 TTTTTTTTTTTTTTTTTTTTTTTTTTTTTT PDIG        TELAPSE      237.35 TCPU      232.20
 CHARGE NORMALIZATION FACTOR   1.00000000
 TOTAL ATOMIC CHARGES:
   5.9999934   6.0000066   5.9999934   6.0000066   5.9999934   6.0000066
   5.9999934   6.0000066   5.9999934   6.0000066   5.9999934   6.0000066
   5.9999934   6.0000066   5.9999934   6.0000066   5.9999934   6.0000066
   5.9999934   6.0000066   5.9999934   6.0000066   5.9999934   6.0000066
   5.9999934   6.0000066   5.9999934   6.0000066   5.9999934   6.0000066
   5.9999934   6.0000066   5.9999934   6.0000066   5.9999934   6.0000066
   5.9999934   6.0000066   5.9999934   6.0000066
 TTTTTTTTTTTTTTTTTTTTTTTTTTTTTT MOQGAD      TELAPSE      237.42 TCPU      232.26
 TTTTTTTTTTTTTTTTTTTTTTTTTTTTTT SHELLX      TELAPSE      240.81 TCPU      235.65
 TTTTTTTTTTTTTTTTTTTTTTTTTTTTTT MONMO3      TELAPSE      240.98 TCPU      235.71
 NUMERICALLY INTEGRATED DENSITY    239.9997769780
 TTTTTTTTTTTTTTTTTTTTTTTTTTTTTT NUMDFT      TELAPSE      244.11 TCPU      238.79
 CYC  34 ETOT(AU) -1.522146235763E+03 DETOT -6.06E-08 tst  1.21E-07 PX  3.65E-06
 TTTTTTTTTTTTTTTTTTTTTTTTTTTTTT FDIK        TELAPSE      244.18 TCPU      238.86
 INSULATING STATE - LEVEL SHIFTER    1.00 au
 TOP OF VALENCE BANDS -    BAND    120; K    1; EIG -1.1762687E+00 AU
 BOTTOM OF VIRTUAL BANDS - BAND    121; K    1; EIG -1.4303691E-01 AU
 TTTTTTTTTTTTTTTTTTTTTTTTTTTTTT PDIG        TELAPSE      244.35 TCPU      239.03
 CHARGE NORMALIZATION FACTOR   1.00000000
 TOTAL ATOMIC CHARGES:
   5.9999934   6.0000066   5.9999934   6.0000066   5.9999934   6.0000066
   5.9999934   6.0000066   5.9999934   6.0000066   5.9999934   6.0000066
   5.9999934   6.0000066   5.9999934   6.0000066   5.9999934   6.0000066
   5.9999934   6.0000066   5.9999934   6.0000066   5.9999934   6.0000066
   5.9999934   6.0000066   5.9999934   6.0000066   5.9999934   6.0000066
   5.9999934   6.0000066   5.9999934   6.0000066   5.9999934   6.0000066
   5.9999934   6.0000066   5.9999934   6.0000066
 TTTTTTTTTTTTTTTTTTTTTTTTTTTTTT MOQGAD      TELAPSE      244.41 TCPU      239.09
 TTTTTTTTTTTTTTTTTTTTTTTTTTTTTT SHELLX      TELAPSE      247.81 TCPU      242.49
 TTTTTTTTTTTTTTTTTTTTTTTTTTTTTT MONMO3      TELAPSE      247.97 TCPU      242.55
 NUMERICALLY INTEGRATED DENSITY    239.9997769785
 TTTTTTTTTTTTTTTTTTTTTTTTTTTTTT NUMDFT      TELAPSE      251.11 TCPU      245.62
 CYC  35 ETOT(AU) -1.522146235816E+03 DETOT -5.25E-08 tst  1.03E-07 PX  3.28E-06
 TTTTTTTTTTTTTTTTTTTTTTTTTTTTTT FDIK        TELAPSE      251.18 TCPU      245.69
 INSULATING STATE - LEVEL SHIFTER    1.00 au
 TOP OF VALENCE BANDS -    BAND    120; K    1; EIG -1.1762694E+00 AU
 BOTTOM OF VIRTUAL BANDS - BAND    121; K    1; EIG -1.4303605E-01 AU
 TTTTTTTTTTTTTTTTTTTTTTTTTTTTTT PDIG        TELAPSE      251.35 TCPU      245.85
 CHARGE NORMALIZATION FACTOR   1.00000000
 TOTAL ATOMIC CHARGES:
   5.9999934   6.0000066   5.9999934   6.0000066   5.9999934   6.0000066
   5.9999934   6.0000066   5.9999934   6.0000066   5.9999934   6.0000066
   5.9999934   6.0000066   5.9999934   6.0000066   5.9999934   6.0000066
   5.9999934   6.0000066   5.9999934   6.0000066   5.9999934   6.0000066
   5.9999934   6.0000066   5.9999934   6.0000066   5.9999934   6.0000066
   5.9999934   6.0000066   5.9999934   6.0000066   5.9999934   6.0000066
   5.9999934   6.0000066   5.9999934   6.0000066
 TTTTTTTTTTTTTTTTTTTTTTTTTTTTTT MOQGAD      TELAPSE      251.41 TCPU      245.91
 TTTTTTTTTTTTTTTTTTTTTTTTTTTTTT SHELLX      TELAPSE      254.81 TCPU      249.31
 TTTTTTTTTTTTTTTTTTTTTTTTTTTTTT MONMO3      TELAPSE      254.97 TCPU      249.37
 NUMERICALLY INTEGRATED DENSITY    239.9997769790
 TTTTTTTTTTTTTTTTTTTTTTTTTTTTTT NUMDFT      TELAPSE      258.10 TCPU      252.46
 CYC  36 ETOT(AU) -1.522146235863E+03 DETOT -4.71E-08 tst  8.80E-08 PX  2.96E-06
 TTTTTTTTTTTTTTTTTTTTTTTTTTTTTT FDIK        TELAPSE      258.17 TCPU      252.53
 INSULATING STATE - LEVEL SHIFTER    1.00 au
 TOP OF VALENCE BANDS -    BAND    120; K    1; EIG -1.1762701E+00 AU
 BOTTOM OF VIRTUAL BANDS - BAND    121; K    1; EIG -1.4303527E-01 AU
 TTTTTTTTTTTTTTTTTTTTTTTTTTTTTT PDIG        TELAPSE      258.34 TCPU      252.68
 CHARGE NORMALIZATION FACTOR   1.00000000
 TOTAL ATOMIC CHARGES:
   5.9999934   6.0000066   5.9999934   6.0000066   5.9999934   6.0000066
   5.9999934   6.0000066   5.9999934   6.0000066   5.9999934   6.0000066
   5.9999934   6.0000066   5.9999934   6.0000066   5.9999934   6.0000066
   5.9999934   6.0000066   5.9999934   6.0000066   5.9999934   6.0000066
   5.9999934   6.0000066   5.9999934   6.0000066   5.9999934   6.0000066
   5.9999934   6.0000066   5.9999934   6.0000066   5.9999934   6.0000066
   5.9999934   6.0000066   5.9999934   6.0000066
 TTTTTTTTTTTTTTTTTTTTTTTTTTTTTT MOQGAD      TELAPSE      258.40 TCPU      252.74
 TTTTTTTTTTTTTTTTTTTTTTTTTTTTTT SHELLX      TELAPSE      261.80 TCPU      256.13
 TTTTTTTTTTTTTTTTTTTTTTTTTTTTTT MONMO3      TELAPSE      261.96 TCPU      256.20
 NUMERICALLY INTEGRATED DENSITY    239.9997769794
 TTTTTTTTTTTTTTTTTTTTTTTTTTTTTT NUMDFT      TELAPSE      265.09 TCPU      259.28
 CYC  37 ETOT(AU) -1.522146235902E+03 DETOT -3.96E-08 tst  7.49E-08 PX  2.69E-06
 TTTTTTTTTTTTTTTTTTTTTTTTTTTTTT FDIK        TELAPSE      265.16 TCPU      259.34
 INSULATING STATE - LEVEL SHIFTER    1.00 au
 TOP OF VALENCE BANDS -    BAND    120; K    1; EIG -1.1762707E+00 AU
 BOTTOM OF VIRTUAL BANDS - BAND    121; K    1; EIG -1.4303455E-01 AU
 TTTTTTTTTTTTTTTTTTTTTTTTTTTTTT PDIG        TELAPSE      265.34 TCPU      259.51
 CHARGE NORMALIZATION FACTOR   1.00000000
 TOTAL ATOMIC CHARGES:
   5.9999934   6.0000066   5.9999934   6.0000066   5.9999934   6.0000066
   5.9999934   6.0000066   5.9999934   6.0000066   5.9999934   6.0000066
   5.9999934   6.0000066   5.9999934   6.0000066   5.9999934   6.0000066
   5.9999934   6.0000066   5.9999934   6.0000066   5.9999934   6.0000066
   5.9999934   6.0000066   5.9999934   6.0000066   5.9999934   6.0000066
   5.9999934   6.0000066   5.9999934   6.0000066   5.9999934   6.0000066
   5.9999934   6.0000066   5.9999934   6.0000066
 TTTTTTTTTTTTTTTTTTTTTTTTTTTTTT MOQGAD      TELAPSE      265.40 TCPU      259.57
[...]
   9 F   6 C    -0.33348657406E+00 -0.23324086152E+01 -0.32102850903E+01   3.968
  10 F   6 C    -0.16651342594E+00 -0.32102902108E+01 -0.23324123355E+01   3.968
  11 F   6 C     0.16651342594E+00  0.12262198085E+01 -0.37739164393E+01   3.968
  12 F   6 C     0.33348657406E+00 -0.24210556214E-07 -0.39681369105E+01   3.968
  13 F   6 C    -0.33348657406E+00  0.37739164542E+01 -0.12262197625E+01   3.968
  14 F   6 C    -0.16651342594E+00  0.32102901823E+01 -0.23324123746E+01   3.968
  15 F   6 C     0.16651342594E+00  0.32102850618E+01  0.23324086544E+01   3.968
  16 F   6 C     0.33348657406E+00  0.37739224737E+01  0.12262217183E+01   3.968
  17 F   6 C    -0.33348657406E+00 -0.24210190457E-07  0.39681305812E+01   3.968
  18 F   6 C    -0.16651342594E+00  0.12262217644E+01  0.37739224588E+01   3.968
  19 F   6 C     0.16651342594E+00 -0.32102850903E+01  0.23324086152E+01   3.968
  20 F   6 C     0.33348657406E+00 -0.23324123355E+01  0.32102902108E+01   3.968
  21 F   6 C    -0.33348657406E+00 -0.37739164393E+01 -0.12262198085E+01   3.968
  22 F   6 C    -0.16651342594E+00 -0.39681369105E+01  0.24210556946E-07   3.968
  23 F   6 C     0.16651342594E+00 -0.12262197625E+01 -0.37739164542E+01   3.968
  24 F   6 C     0.33348657406E+00 -0.23324123746E+01 -0.32102901823E+01   3.968
  25 F   6 C    -0.33348657406E+00  0.23324086544E+01 -0.32102850618E+01   3.968
  26 F   6 C    -0.16651342594E+00  0.12262217183E+01 -0.37739224737E+01   3.968
  27 F   6 C     0.16651342594E+00  0.39681305812E+01  0.24210189574E-07   3.968
  28 F   6 C     0.33348657406E+00  0.37739224588E+01 -0.12262217644E+01   3.968
  29 F   6 C    -0.33348657406E+00  0.23324086152E+01  0.32102850903E+01   3.968
  30 F   6 C    -0.16651342594E+00  0.32102902108E+01  0.23324123355E+01   3.968
  31 F   6 C     0.16651342594E+00 -0.12262198085E+01  0.37739164393E+01   3.968
  32 F   6 C     0.33348657406E+00  0.24210557672E-07  0.39681369105E+01   3.968
  33 F   6 C    -0.33348657406E+00 -0.37739164542E+01  0.12262197625E+01   3.968
  34 F   6 C    -0.16651342594E+00 -0.32102901823E+01  0.23324123746E+01   3.968
  35 F   6 C     0.16651342594E+00 -0.32102850618E+01 -0.23324086544E+01   3.968
  36 F   6 C     0.33348657406E+00 -0.37739224737E+01 -0.12262217183E+01   3.968
  37 F   6 C    -0.33348657406E+00  0.24210188686E-07 -0.39681305812E+01   3.968
  38 F   6 C    -0.16651342594E+00 -0.12262217644E+01 -0.37739224588E+01   3.968
  39 F   6 C     0.16651342594E+00  0.32102850903E+01 -0.23324086152E+01   3.968
  40 F   6 C     0.33348657406E+00  0.23324123355E+01 -0.32102902108E+01   3.968

 T = ATOM BELONGING TO THE ASYMMETRIC UNIT

 TOTAL ENERGY(DFT)(AU)(  9) -1.5221473887767E+03     DE (AU)   -4.601E-06

 UPDATED TRUST RADIUS     0.400E+01

 SYMMETRY ALLOWED FORCES  (COORDINATE, FORCE)

    1  1.2809754E-04    2 -9.4487652E-06    3 -2.1105306E-06    4 -1.5486821E-05
    5 -6.5021580E-06

 GRADIENT NORM     0.000130  GRADIENT THRESHOLD     0.500000

 EIGENVALUES OF THE ESTIMATED HESSIAN
  0.2958E-01  0.3818E-01  0.1384       1.151       1.552    

 PREDICTED ENERGY CHANGE    -0.120E-07

 MAX GRADIENT      0.000128  THRESHOLD              0.000450 CONVERGED YES
 RMS GRADIENT      0.000058  THRESHOLD              0.000300 CONVERGED YES
 MAX DISPLAC.      0.000361  THRESHOLD              0.001800 CONVERGED YES
 RMS DISPLAC.      0.000242  THRESHOLD              0.001200 CONVERGED YES

 CONVERGENCE TESTS SATISFIED AFTER   4 ENERGY AND GRADIENT CALCULATIONS
++++++++++++++++++++++++++++++++++++++++++++++++++++++++++++++++++++++
 FINALRUN OPTION: RE-STARTING OPTIMIZATION
++++++++++++++++++++++++++++++++++++++++++++++++++++++++++++++++++++++
 TTTTTTTTTTTTTTTTTTTTTTTTTTTTTT OPTI        TELAPSE     1019.21 TCPU      996.11
 *******************************************************************************
 COORDINATE AND CELL OPTIMIZATION - POINT    5
 *******************************************************************************
 LATTICE PARAMETERS (ANGSTROMS AND DEGREES) - BOHR = 0.5291772083 ANGSTROM
 PRIMITIVE CELL
         A              B              C           ALPHA      BETA       GAMMA 
     4.27559190   500.00000000   500.00000000    90.000000  90.000000  90.000000
 *******************************************************************************
 ATOMS IN THE ASYMMETRIC UNIT    2 - ATOMS IN THE UNIT CELL:   40
     ATOM              X/A             Y(ANGSTROM)         Z(ANGSTROM)   R(ANGS)
 *******************************************************************************
   1 T   6 C    -0.33348432659E+00  0.37738882706E+01  0.12262106593E+01   3.968
   2 T   6 C    -0.16651567341E+00  0.39681021411E+01 -0.27355389552E-07   3.968
   3 F   6 C     0.16651567341E+00  0.12262106072E+01  0.37738882875E+01   3.968
   4 F   6 C     0.33348432659E+00  0.23323919403E+01  0.32102620515E+01   3.968
   5 F   6 C    -0.33348432659E+00 -0.23323912483E+01  0.32102610991E+01   3.968
   6 F   6 C    -0.16651567341E+00 -0.12262109710E+01  0.37738894071E+01   3.968
   7 F   6 C     0.16651567341E+00 -0.39681009639E+01 -0.27355197638E-07   3.968
   8 F   6 C     0.33348432659E+00 -0.37738893902E+01  0.12262110230E+01   3.968
   9 F   6 C    -0.33348432659E+00 -0.23323912040E+01 -0.32102611313E+01   3.968
  10 F   6 C    -0.16651567341E+00 -0.32102620836E+01 -0.23323918960E+01   3.968
  11 F   6 C     0.16651567341E+00  0.12262106593E+01 -0.37738882706E+01   3.968
  12 F   6 C     0.33348432659E+00 -0.27355390284E-07 -0.39681021411E+01   3.968
  13 F   6 C    -0.33348432659E+00  0.37738882875E+01 -0.12262106072E+01   3.968
  14 F   6 C    -0.16651567341E+00  0.32102620515E+01 -0.23323919403E+01   3.968
  15 F   6 C     0.16651567341E+00  0.32102610991E+01  0.23323912483E+01   3.968
  16 F   6 C     0.33348432659E+00  0.37738894071E+01  0.12262109710E+01   3.968
  17 F   6 C    -0.33348432659E+00 -0.27355196977E-07  0.39681009639E+01   3.968
  18 F   6 C    -0.16651567341E+00  0.12262110230E+01  0.37738893902E+01   3.968
  19 F   6 C     0.16651567341E+00 -0.32102611313E+01  0.23323912040E+01   3.968
  20 F   6 C     0.33348432659E+00 -0.23323918960E+01  0.32102620836E+01   3.968
  21 F   6 C    -0.33348432659E+00 -0.37738882706E+01 -0.12262106593E+01   3.968
  22 F   6 C    -0.16651567341E+00 -0.39681021411E+01  0.27355391015E-07   3.968
  23 F   6 C     0.16651567341E+00 -0.12262106072E+01 -0.37738882875E+01   3.968
  24 F   6 C     0.33348432659E+00 -0.23323919403E+01 -0.32102620515E+01   3.968
  25 F   6 C    -0.33348432659E+00  0.23323912483E+01 -0.32102610991E+01   3.968
  26 F   6 C    -0.16651567341E+00  0.12262109710E+01 -0.37738894071E+01   3.968
  27 F   6 C     0.16651567341E+00  0.39681009639E+01  0.27355196094E-07   3.968
  28 F   6 C     0.33348432659E+00  0.37738893902E+01 -0.12262110230E+01   3.968
  29 F   6 C    -0.33348432659E+00  0.23323912040E+01  0.32102611313E+01   3.968
  30 F   6 C    -0.16651567341E+00  0.32102620836E+01  0.23323918960E+01   3.968
  31 F   6 C     0.16651567341E+00 -0.12262106593E+01  0.37738882706E+01   3.968
  32 F   6 C     0.33348432659E+00  0.27355391741E-07  0.39681021411E+01   3.968
  33 F   6 C    -0.33348432659E+00 -0.37738882875E+01  0.12262106072E+01   3.968
  34 F   6 C    -0.16651567341E+00 -0.32102620515E+01  0.23323919403E+01   3.968
  35 F   6 C     0.16651567341E+00 -0.32102610991E+01 -0.23323912483E+01   3.968
  36 F   6 C     0.33348432659E+00 -0.37738894071E+01 -0.12262109710E+01   3.968
  37 F   6 C    -0.33348432659E+00  0.27355195206E-07 -0.39681009639E+01   3.968
  38 F   6 C    -0.16651567341E+00 -0.12262110230E+01 -0.37738893902E+01   3.968
  39 F   6 C     0.16651567341E+00  0.32102611313E+01 -0.23323912040E+01   3.968
  40 F   6 C     0.33348432659E+00  0.23323918960E+01 -0.32102620836E+01   3.968

 T = ATOM BELONGING TO THE ASYMMETRIC UNIT

 ENERGY DIFFERENCE WITH RESPECT TO FIRST CALCULATION USING
 THE PRESENT REFERENCE GEOMETRY:  1.522147388777E+03

 MAXIMUM ATOM DISPLACEMENT WITH RESPECT TO
 THE PRESENT REFERENCE GEOMETRY:   3.084942517418E-02

 REFERENCE GEOMETRY WILL BE CHANGED

 TOTAL ENERGY(DFT)(AU)( 50) -1.5221470611794E+03     DE (AU)    3.276E-04

 SYMMETRY ALLOWED FORCES  (COORDINATE, FORCE)

    1  1.5088111E-04    2  8.8390068E-06    3 -3.4291390E-06    4 -8.0272836E-06
    5  2.8583923E-05

 GRADIENT NORM     0.000154  GRADIENT THRESHOLD     0.500000

 HESSIAN UPDATE SKIPPED

 EIGENVALUES OF THE ESTIMATED HESSIAN
  0.2958E-01  0.3818E-01  0.1384       1.151       1.552    

 PREDICTED ENERGY CHANGE    -0.199E-07

 MAX GRADIENT      0.000151  THRESHOLD              0.000450 CONVERGED YES
 RMS GRADIENT      0.000069  THRESHOLD              0.000300 CONVERGED YES
 MAX DISPLAC.      0.000793  THRESHOLD              0.001800 CONVERGED YES
 RMS DISPLAC.      0.000362  THRESHOLD              0.001200 CONVERGED YES

 CONVERGENCE TESTS SATISFIED AFTER   5 ENERGY AND GRADIENT CALCULATIONS

 ******************************************************************
 * OPT END - CONVERGED * E(AU):  -1.522147061179E+03  POINTS    5 *
 ******************************************************************

 WARNING **** iordo **** not allocated - eigenvalues printing removed
 WARNING **** iordo **** not allocated - eigenvector printing removed
 EIGENVECTORS IN FORTRAN UNIT 10

 NEIGHBORS OF THE NON-EQUIVALENT ATOMS

 N = NUMBER OF NEIGHBORS AT DISTANCE R
    ATOM  N     R/ANG      R/AU   NEIGHBORS (ATOM LABELS AND CELL INDICES)
   1 C    1     1.4239     2.6908  16 C    0 0 0
   1 C    1     1.4321     2.7063  30 C    0 0 0
   1 C    1     1.4321     2.7063   2 C    0 0 0
   1 C    2     2.4524     4.6344  13 C    0 0 0  29 C    0 0 0
   1 C    4     2.4721     4.6717  15 C    0 0 0  15 C    1 0 0  27 C    1 0 0
                                   27 C    0 0 0
   1 C    1     2.8358     5.3589   4 C    0 0 0

   2 C    1     1.4239     2.6908  27 C    1 0 0
   2 C    1     1.4321     2.7063  13 C    0 0 0
   2 C    1     1.4321     2.7063   1 C    0 0 0
   2 C    2     2.4524     4.6344  14 C    0 0 0  30 C    0 0 0
   2 C    4     2.4721     4.6717  16 C    0 0 0  16 C    1 0 0  28 C    1 0 0
                                   28 C    0 0 0
   2 C    1     2.8358     5.3589  39 C    1 0 0


 FINAL OPTIMIZED GEOMETRY - DIMENSIONALITY OF THE SYSTEM      1
 (NON PERIODIC DIRECTION: LATTICE PARAMETER FORMALLY SET TO 500)
 *******************************************************************************
 LATTICE PARAMETERS (ANGSTROMS AND DEGREES) - BOHR = 0.5291772083 ANGSTROM
 PRIMITIVE CELL
         A              B              C           ALPHA      BETA       GAMMA 
     4.27559190   500.00000000   500.00000000    90.000000  90.000000  90.000000
 *******************************************************************************
 ATOMS IN THE ASYMMETRIC UNIT    2 - ATOMS IN THE UNIT CELL:   40
     ATOM              X/A             Y(ANGSTROM)         Z(ANGSTROM)   R(ANGS)
 *******************************************************************************
   1 T   6 C    -0.33348432659E+00  0.37738882706E+01  0.12262106593E+01   3.968
   2 T   6 C    -0.16651567341E+00  0.39681021411E+01 -0.27355389552E-07   3.968
   3 F   6 C     0.16651567341E+00  0.12262106072E+01  0.37738882875E+01   3.968
   4 F   6 C     0.33348432659E+00  0.23323919403E+01  0.32102620515E+01   3.968
   5 F   6 C    -0.33348432659E+00 -0.23323912483E+01  0.32102610991E+01   3.968
   6 F   6 C    -0.16651567341E+00 -0.12262109710E+01  0.37738894071E+01   3.968
   7 F   6 C     0.16651567341E+00 -0.39681009639E+01 -0.27355197638E-07   3.968
   8 F   6 C     0.33348432659E+00 -0.37738893902E+01  0.12262110230E+01   3.968
   9 F   6 C    -0.33348432659E+00 -0.23323912040E+01 -0.32102611313E+01   3.968
  10 F   6 C    -0.16651567341E+00 -0.32102620836E+01 -0.23323918960E+01   3.968
  11 F   6 C     0.16651567341E+00  0.12262106593E+01 -0.37738882706E+01   3.968
  12 F   6 C     0.33348432659E+00 -0.27355390284E-07 -0.39681021411E+01   3.968
  13 F   6 C    -0.33348432659E+00  0.37738882875E+01 -0.12262106072E+01   3.968
  14 F   6 C    -0.16651567341E+00  0.32102620515E+01 -0.23323919403E+01   3.968
  15 F   6 C     0.16651567341E+00  0.32102610991E+01  0.23323912483E+01   3.968
  16 F   6 C     0.33348432659E+00  0.37738894071E+01  0.12262109710E+01   3.968
  17 F   6 C    -0.33348432659E+00 -0.27355196977E-07  0.39681009639E+01   3.968
  18 F   6 C    -0.16651567341E+00  0.12262110230E+01  0.37738893902E+01   3.968
  19 F   6 C     0.16651567341E+00 -0.32102611313E+01  0.23323912040E+01   3.968
  20 F   6 C     0.33348432659E+00 -0.23323918960E+01  0.32102620836E+01   3.968
  21 F   6 C    -0.33348432659E+00 -0.37738882706E+01 -0.12262106593E+01   3.968
  22 F   6 C    -0.16651567341E+00 -0.39681021411E+01  0.27355391015E-07   3.968
  23 F   6 C     0.16651567341E+00 -0.12262106072E+01 -0.37738882875E+01   3.968
  24 F   6 C     0.33348432659E+00 -0.23323919403E+01 -0.32102620515E+01   3.968
  25 F   6 C    -0.33348432659E+00  0.23323912483E+01 -0.32102610991E+01   3.968
  26 F   6 C    -0.16651567341E+00  0.12262109710E+01 -0.37738894071E+01   3.968
  27 F   6 C     0.16651567341E+00  0.39681009639E+01  0.27355196094E-07   3.968
  28 F   6 C     0.33348432659E+00  0.37738893902E+01 -0.12262110230E+01   3.968
  29 F   6 C    -0.33348432659E+00  0.23323912040E+01  0.32102611313E+01   3.968
  30 F   6 C    -0.16651567341E+00  0.32102620836E+01  0.23323918960E+01   3.968
  31 F   6 C     0.16651567341E+00 -0.12262106593E+01  0.37738882706E+01   3.968
  32 F   6 C     0.33348432659E+00  0.27355391741E-07  0.39681021411E+01   3.968
  33 F   6 C    -0.33348432659E+00 -0.37738882875E+01  0.12262106072E+01   3.968
  34 F   6 C    -0.16651567341E+00 -0.32102620515E+01  0.23323919403E+01   3.968
  35 F   6 C     0.16651567341E+00 -0.32102610991E+01 -0.23323912483E+01   3.968
  36 F   6 C     0.33348432659E+00 -0.37738894071E+01 -0.12262109710E+01   3.968
  37 F   6 C    -0.33348432659E+00  0.27355195206E-07 -0.39681009639E+01   3.968
  38 F   6 C    -0.16651567341E+00 -0.12262110230E+01 -0.37738893902E+01   3.968
  39 F   6 C     0.16651567341E+00  0.32102611313E+01 -0.23323912040E+01   3.968
  40 F   6 C     0.33348432659E+00  0.23323918960E+01 -0.32102620836E+01   3.968

 T = ATOM BELONGING TO THE ASYMMETRIC UNIT
 INFORMATION **** fort.34 **** GEOMETRY OUTPUT FILE

 DIRECT LATTICE VECTORS CARTESIAN COMPONENTS (ANGSTROM)
          X                    Y                    Z
   0.427559190326E+01   0.000000000000E+00   0.000000000000E+00
   0.000000000000E+00   0.500000000000E+03   0.000000000000E+00
   0.000000000000E+00   0.000000000000E+00   0.500000000000E+03


 CARTESIAN COORDINATES - PRIMITIVE CELL
 *******************************************************************************
 *      ATOM          X(ANGSTROM)         Y(ANGSTROM)         Z(ANGSTROM)
 *******************************************************************************
   1     6 C     2.849749016616E+00  3.773888270567E+00  1.226210659253E+00
   2     6 C     3.563638838276E+00  3.968102141085E+00 -2.735538955241E-08
   3     6 C     7.119530649865E-01  1.226210607220E+00  3.773888287474E+00
   4     6 C     1.425842886646E+00  2.332391940251E+00  3.210262051474E+00
   5     6 C     2.849749016616E+00 -2.332391248310E+00  3.210261099100E+00
   6     6 C     3.563638838276E+00 -1.226210970994E+00  3.773889407057E+00
   7     6 C     7.119530649865E-01 -3.968100963886E+00 -2.735519763807E-08
   8     6 C     1.425842886646E+00 -3.773889390151E+00  1.226211023027E+00
   9     6 C     2.849749016616E+00 -2.332391204049E+00 -3.210261131258E+00
  10     6 C     3.563638838276E+00 -3.210262083633E+00 -2.332391895989E+00
  11     6 C     7.119530649865E-01  1.226210659253E+00 -3.773888270567E+00
  12     6 C     1.425842886646E+00 -2.735539028359E-08 -3.968102141085E+00
  13     6 C     2.849749016616E+00  3.773888287474E+00 -1.226210607220E+00
  14     6 C     3.563638838276E+00  3.210262051474E+00 -2.332391940251E+00
  15     6 C     7.119530649865E-01  3.210261099100E+00  2.332391248310E+00
  16     6 C     1.425842886646E+00  3.773889407057E+00  1.226210970994E+00
  17     6 C     2.849749016616E+00 -2.735519697690E-08  3.968100963886E+00
  18     6 C     3.563638838276E+00  1.226211023027E+00  3.773889390151E+00
  19     6 C     7.119530649865E-01 -3.210261131258E+00  2.332391204049E+00
  20     6 C     1.425842886646E+00 -2.332391895989E+00  3.210262083633E+00
  21     6 C     2.849749016616E+00 -3.773888270567E+00 -1.226210659253E+00
  22     6 C     3.563638838276E+00 -3.968102141085E+00  2.735539101525E-08
  23     6 C     7.119530649865E-01 -1.226210607220E+00 -3.773888287474E+00
  24     6 C     1.425842886646E+00 -2.332391940251E+00 -3.210262051474E+00
  25     6 C     2.849749016616E+00  2.332391248310E+00 -3.210261099100E+00
  26     6 C     3.563638838276E+00  1.226210970994E+00 -3.773889407057E+00
  27     6 C     7.119530649865E-01  3.968100963886E+00  2.735519609356E-08
  28     6 C     1.425842886646E+00  3.773889390151E+00 -1.226211023027E+00
  29     6 C     2.849749016616E+00  2.332391204049E+00  3.210261131258E+00
  30     6 C     3.563638838276E+00  3.210262083633E+00  2.332391895989E+00
  31     6 C     7.119530649865E-01 -1.226210659253E+00  3.773888270567E+00
  32     6 C     1.425842886646E+00  2.735539174111E-08  3.968102141085E+00
  33     6 C     2.849749016616E+00 -3.773888287474E+00  1.226210607220E+00
  34     6 C     3.563638838276E+00 -3.210262051474E+00  2.332391940251E+00
  35     6 C     7.119530649865E-01 -3.210261099100E+00 -2.332391248310E+00
  36     6 C     1.425842886646E+00 -3.773889407057E+00 -1.226210970994E+00
  37     6 C     2.849749016616E+00  2.735519520558E-08 -3.968100963886E+00
  38     6 C     3.563638838276E+00 -1.226211023027E+00 -3.773889390151E+00
  39     6 C     7.119530649865E-01  3.210261131258E+00 -2.332391204049E+00
  40     6 C     1.425842886646E+00  2.332391895989E+00 -3.210262083633E+00

 ****  20 SYMMOPS - TRANSLATORS IN FRACTIONAL UNITS
  V INV                   ROTATION MATRICES                       TRANSLATOR
  1  1  1.00  0.00  0.00  0.00  1.00  0.00  0.00  0.00  1.00    0.00  0.00  0.00
  2 20  1.00  0.00  0.00  0.00  0.59 -0.81  0.00  0.81  0.59    0.50  0.00  0.00
  3 19  1.00  0.00  0.00  0.00 -0.31 -0.95  0.00  0.95 -0.31    1.00  0.00  0.00
  4 18  1.00  0.00  0.00  0.00 -0.95 -0.31  0.00  0.31 -0.95    1.50  0.00  0.00
  5 17  1.00  0.00  0.00  0.00 -0.81  0.59  0.00 -0.59 -0.81    2.00  0.00  0.00
  6 16  1.00  0.00  0.00  0.00  0.00  1.00  0.00 -1.00  0.00    2.50  0.00  0.00
  7 15  1.00  0.00  0.00  0.00  0.81  0.59  0.00 -0.59  0.81    3.00  0.00  0.00
  8 14  1.00  0.00  0.00  0.00  0.95 -0.31  0.00  0.31  0.95    3.50  0.00  0.00
  9 13  1.00  0.00  0.00  0.00  0.31 -0.95  0.00  0.95  0.31    4.00  0.00  0.00
 10 12  1.00  0.00  0.00  0.00 -0.59 -0.81  0.00  0.81 -0.59    4.50  0.00  0.00
 11 11  1.00  0.00  0.00  0.00 -1.00  0.00  0.00  0.00 -1.00    5.00  0.00  0.00
 12 10  1.00  0.00  0.00  0.00 -0.59  0.81  0.00 -0.81 -0.59    5.50  0.00  0.00
 13  9  1.00  0.00  0.00  0.00  0.31  0.95  0.00 -0.95  0.31    6.00  0.00  0.00
 14  8  1.00  0.00  0.00  0.00  0.95  0.31  0.00 -0.31  0.95    6.50  0.00  0.00
 15  7  1.00  0.00  0.00  0.00  0.81 -0.59  0.00  0.59  0.81    7.00  0.00  0.00
 16  6  1.00  0.00  0.00  0.00  0.00 -1.00  0.00  1.00  0.00    7.50  0.00  0.00
 17  5  1.00  0.00  0.00  0.00 -0.81 -0.59  0.00  0.59 -0.81    8.00  0.00  0.00
 18  4  1.00  0.00  0.00  0.00 -0.95  0.31  0.00 -0.31 -0.95    8.50  0.00  0.00
 19  3  1.00  0.00  0.00  0.00 -0.31  0.95  0.00 -0.95 -0.31    9.00  0.00  0.00
 20  2  1.00  0.00  0.00  0.00  0.59  0.81  0.00 -0.81  0.59    9.50  0.00  0.00
 TTTTTTTTTTTTTTTTTTTTTTTTTTTTTT END         TELAPSE     1430.95 TCPU     1399.06
 EEEEEEEEEE TERMINATION  DATE 02 02 2010 TIME 20:45:45.8
NODE    0 CPU TIME =      1399.060
NODE    1 CPU TIME =      1423.230
    TOTAL CPU TIME =      2822.290
FORTRAN STOP
FORTRAN STOP
Tue Feb  2 20:45:45 CET 2010
