/home/test/raffaella/cvs090720/bin/Linux-ifort_mpich_1.2.7.debian4.0_2.6_dyn/std
/data/raffa/tmp_test_nano11_28780
(14,-14) chrysotile from lizardite bulk - inverse rolling
CRYSTAL
1 0 0
P 3 1 M
5.31679829     7.17942742
8
12     3.304951136857E-01  5.551115123126E-17  4.621043790555E-01
14     3.333333333333E-01 -3.333333333333E-01  7.508603875095E-02
8      3.333333333333E-01 -3.333333333333E-01  2.983206478232E-01
8     -4.827905864348E-01  1.110223024625E-16 -1.373629309786E-02
8     -3.347159286564E-01 -8.326672684689E-17 -4.056236476955E-01
8      0.000000000000E+00  0.000000000000E+00  3.018776781631E-01
1     -3.492355962827E-01  0.000000000000E+00 -2.705753095977E-01
1      0.000000000000E+00  0.000000000000E+00  1.670015626956E-01
SLABCUT
0 0 1
2 8
NANOJMOL
NANOTUBE
14 -14
TEST
END
Wed Aug 12 12:58:16 CEST 2009
 PROCESS            0  OF            1  WORKING

         
 *******************************************************************************
 *                                                                             *
 *                                CRYSTAL09                                    *
 *                              develop : 1.0                                  *
 *                      cvs090720 - parallel executable                        *
 *                                                                             *
 *                                                                             *
 *                                                                             *
 *                              MAIN AUTHORS                                   *
 *                                                                             *
 *    R. DOVESI(1,10), V.R. SAUNDERS(2), C. ROETTI(1,10), R. ORLANDO (1,3),    *
 *  C.M. ZICOVICH-WILSON(1,4), F. PASCALE(5), B. CIVALLERI(1,10), K. DOLL(6),  *
 *       N.M. HARRISON(2,7), I. J. BUSH(2), Ph. D'ARCO(8), M. LLUNELL(9)       *
 *                                                                             *
 * (1) THEORETICAL CHEMISTRY GROUP - UNIVERSITA' DI TORINO - TORINO (ITALY)    *
 *      http://www.crystal.unito.it                                            *
 * (2) COMPUTATIONAL SCIENCE & ENGINEERING DEPARTMENT - CCLRC DARESBURY (UK)   *
 *     http://www.cse.clrc.ac.uk/cmg/CRYSTAL/                                  *
 * (3) UNIVERSITA' DEL PIEMONTE ORIENTALE - ALESSANDRIA (ITALY)                *
 * (4) UNIVERSIDAD AUTONOMA DEL ESTADO DE MORELOS - CUERNAVACA (MEXICO)        *
 * (5) UNIVERSITE' HENRI POINCARE' - NANCY (FRANCE)                            *
 * (6) MPI FUER FESTKOERPERFORSCHUNG - STUTTGART (GERMANY)                     *
 * (7) IMPERIAL COLLEGE - LONDON (UK)                                          *
 * (8) UNIVERSITE' PIERRE ET MARIE CURIE - PARIS (FRANCE)                      *
 * (9) UNIVERSIDAD DE BARCELONA - BARCELONA (SPAIN)                            *
 *(10) NIS - NANOSTRUCTURED INTERFACES AND SURFACES - TORINO (ITALY)           *
 *     http://www.crystal.unito.it                                             *
 *******************************************************************************
 EEEEEEEEEE STARTING  DATE 12 08 2009 TIME 12:58:16.4
 (14,-14) chrysotile from lizardite bulk - inverse rolling                       

 CRYSTAL CALCULATION
 (INPUT ACCORDING TO THE INTERNATIONAL TABLES FOR X-RAY CRYSTALLOGRAPHY)
 CRYSTAL FAMILY                       :  HEXAGONAL   
 CRYSTAL CLASS  (GROTH - 1921)        :  DITRIGONAL PYRAMIDAL                 

 SPACE GROUP (NONCENTROSYMMETRIC)     :  P 3 1 M         

 LATTICE PARAMETERS  (ANGSTROMS AND DEGREES) - CONVENTIONAL CELL
        A           B           C        ALPHA        BETA       GAMMA
     5.31680     5.31680     7.17943    90.00000    90.00000   120.00000


 NUMBER OF IRREDUCIBLE ATOMS IN THE CONVENTIONAL CELL:    8

 INPUT COORDINATES

 ATOM AT. N.              COORDINATES
   1  12     3.304951136857E-01  5.551115123126E-17  4.621043790555E-01
   2  14     3.333333333333E-01 -3.333333333333E-01  7.508603875095E-02
   3   8     3.333333333333E-01 -3.333333333333E-01  2.983206478232E-01
   4   8    -4.827905864348E-01  1.110223024625E-16 -1.373629309786E-02
   5   8    -3.347159286564E-01 -8.326672684689E-17 -4.056236476955E-01
   6   8     0.000000000000E+00  0.000000000000E+00  3.018776781631E-01
   7   1    -3.492355962827E-01  0.000000000000E+00 -2.705753095977E-01
   8   1     0.000000000000E+00  0.000000000000E+00  1.670015626956E-01

 *******************************************************************************

 << INFORMATION >>: FROM NOW ON, ALL COORDINATES REFER TO THE PRIMITIVE CELL

 *******************************************************************************

 LATTICE PARAMETERS  (ANGSTROMS AND DEGREES) - PRIMITIVE CELL
       A          B          C         ALPHA     BETA     GAMMA        VOLUME
    5.31680    5.31680    7.17943    90.00000  90.00000 120.00000    175.760310

 COORDINATES OF THE EQUIVALENT ATOMS (FRACTIONARY UNITS)

 N. ATOM EQUIV AT. N.          X                  Y                  Z

   1   1   1   12 MG    3.30495113686E-01  5.55111512313E-17  4.62104379056E-01
   2   1   2   12 MG   -5.55111512313E-17  3.30495113686E-01  4.62104379056E-01
   3   1   3   12 MG   -3.30495113686E-01 -3.30495113686E-01  4.62104379056E-01

   4   2   1   14 SI    3.33333333333E-01 -3.33333333333E-01  7.50860387510E-02
   5   2   2   14 SI   -3.33333333333E-01  3.33333333333E-01  7.50860387510E-02

   6   3   1    8 O     3.33333333333E-01 -3.33333333333E-01  2.98320647823E-01
   7   3   2    8 O    -3.33333333333E-01  3.33333333333E-01  2.98320647823E-01

   8   4   1    8 O    -4.82790586435E-01  1.11022302463E-16 -1.37362930979E-02
   9   4   2    8 O    -1.11022302463E-16 -4.82790586435E-01 -1.37362930979E-02
  10   4   3    8 O     4.82790586435E-01  4.82790586435E-01 -1.37362930979E-02

  11   5   1    8 O    -3.34715928656E-01 -8.32667268469E-17 -4.05623647696E-01
  12   5   2    8 O     8.32667268469E-17 -3.34715928656E-01 -4.05623647696E-01
  13   5   3    8 O     3.34715928656E-01  3.34715928656E-01 -4.05623647696E-01

  14   6   1    8 O     0.00000000000E+00  0.00000000000E+00  3.01877678163E-01

  15   7   1    1 H    -3.49235596283E-01  0.00000000000E+00 -2.70575309598E-01
  16   7   2    1 H     0.00000000000E+00 -3.49235596283E-01 -2.70575309598E-01
  17   7   3    1 H     3.49235596283E-01  3.49235596283E-01 -2.70575309598E-01

  18   8   1    1 H     0.00000000000E+00  0.00000000000E+00  1.67001562696E-01

 NUMBER OF SYMMETRY OPERATORS         :    6
 *******************************************************************************
 * GEOMETRY EDITING - INPUT COORDINATES ARE GIVEN IN ANGSTROM          
 *******************************************************************************

 GEOMETRY NOW FULLY CONSISTENT WITH THE GROUP


 *******************************************************************************
  * CELL ROTATION 
 *******************************************************************************

 DIRECT-LATTICE FUNDAMENTAL VECTORS 
             X         Y         Z
 A1       4.6045   -2.6584    0.0000
 A2       0.0000    5.3168    0.0000
 A3       0.0000    0.0000    7.1794
 **********************************************************************
 *            DEFINITION OF THE NEW LATTICE VECTORS                   *
 *            TWO OF WHICH BELONG TO THE SELECTED PLANE               *
 **********************************************************************

                       PLANE INDICES =   0   0   1

 NEW FUNDAMENTAL DIRECT-LATTICE VECTORS B1,B2,B3
 B1=      1 A1    0 A2    0 A3 
 B2=      0 A1    1 A2    0 A3 
 B3=      0 A1    0 A2    1 A3 

 LATTICE PARAMETERS  (ANGSTROM  AND DEGREES)
        A           B           C        ALPHA        BETA       GAMMA
     5.31680     5.31680     7.17943    90.00000    90.00000   120.00000

 NUMBER OF PRIMITIVE CELLS CONTAINED IN THE NEW FUNDAMENTAL CELL :  1

 *** THE CARTESIAN FRAME IS ROTATED SO THAT
     THE SELECTED PLANE IS IN THE X-Y PLANE

 NEW FUNDAMENTAL DIRECT-LATTICE VECTORS B1,B2,B3
             X         Y         Z
 B1       5.3168    0.0000    0.0000
 B2      -2.6584    4.6045    0.0000
 B3       0.0000    0.0000    7.1794

 VOLUME OF THE 3D CELL     175.760
 AREA OF THE 2D CELL        24.481
 B3 MODULUS                  7.179
 B3 Z PROJECTION             7.179
 B3 X-Y PROJECTION           0.000

 UNIT CELL ATOM COORDINATES :
 LAB AT.NO.       CARTESIAN (ANG)               CRYSTALLOGRAPHIC
   1  12       1.757     0.000     3.318     0.330495   0.000000   0.462104
   2  12      -0.879     1.522     3.318     0.000000   0.330495   0.462104
   3  12      -0.879    -1.522     3.318    -0.330495  -0.330495   0.462104
   4  14       2.658    -1.535     0.539     0.333333  -0.333333   0.075086
   5  14      -2.658     1.535     0.539    -0.333333   0.333333   0.075086
   6   8       2.658    -1.535     2.142     0.333333  -0.333333   0.298321
   7   8      -2.658     1.535     2.142    -0.333333   0.333333   0.298321
   8   8      -2.567     0.000     7.081    -0.482791   0.000000   0.986264
   9   8       1.283    -2.223     7.081     0.000000  -0.482791   0.986264
  10   8       1.283     2.223     7.081     0.482791   0.482791   0.986264
  11   8      -1.780     0.000     4.267    -0.334716   0.000000   0.594376
  12   8       0.890    -1.541     4.267     0.000000  -0.334716   0.594376
  13   8       0.890     1.541     4.267     0.334716   0.334716   0.594376
  14   8       0.000     0.000     2.167     0.000000   0.000000   0.301878
  15   1      -1.857     0.000     5.237    -0.349236   0.000000   0.729425
  16   1       0.928    -1.608     5.237     0.000000  -0.349236   0.729425
  17   1       0.928     1.608     5.237     0.349236   0.349236   0.729425
  18   1       0.000     0.000     1.199     0.000000   0.000000   0.167002
   1  12       1.757     0.000     3.318     0.330495   0.000000   0.462104
   2  12      -0.879     1.522     3.318     0.000000   0.330495   0.462104
   3  12      -0.879    -1.522     3.318    -0.330495  -0.330495   0.462104
   4  14       2.658    -1.535     0.539     0.333333  -0.333333   0.075086
   5  14      -2.658     1.535     0.539    -0.333333   0.333333   0.075086
   6   8       2.658    -1.535     2.142     0.333333  -0.333333   0.298321
   7   8      -2.658     1.535     2.142    -0.333333   0.333333   0.298321
   8   8      -2.567     0.000     7.081    -0.482791   0.000000   0.986264
   9   8       1.283    -2.223     7.081     0.000000  -0.482791   0.986264
  10   8       1.283     2.223     7.081     0.482791   0.482791   0.986264
  11   8      -1.780     0.000     4.267    -0.334716   0.000000   0.594376
  12   8       0.890    -1.541     4.267     0.000000  -0.334716   0.594376
  13   8       0.890     1.541     4.267     0.334716   0.334716   0.594376
  14   8       0.000     0.000     2.167     0.000000   0.000000   0.301878
  15   1      -1.857     0.000     5.237    -0.349236   0.000000   0.729425
  16   1       0.928    -1.608     5.237     0.000000  -0.349236   0.729425
  17   1       0.928     1.608     5.237     0.349236   0.349236   0.729425
  18   1       0.000     0.000     1.199     0.000000   0.000000   0.167002

 ATOMS CLASSIFIED ACCORDING TO THE Z COORDINATE :
  LAYER   1 Z=   7.0808; LABEL AT.NO.              X,Y,Z (ANG.)
                           8     8       -2.56690     0.00000     7.08081
                           9     8        1.28345    -2.22300     7.08081
                          10     8        1.28345     2.22300     7.08081
  LAYER   2 Z=   5.2369; LABEL AT.NO.              X,Y,Z (ANG.)
                          15     1       -1.85682     0.00000     5.23685
                          16     1        0.92841    -1.60805     5.23685
                          17     1        0.92841     1.60805     5.23685
  LAYER   3 Z=   4.2673; LABEL AT.NO.              X,Y,Z (ANG.)
                          11     8       -1.77962     0.00000     4.26728
                          12     8        0.88981    -1.54119     4.26728
                          13     8        0.88981     1.54119     4.26728
  LAYER   4 Z=   3.3176; LABEL AT.NO.              X,Y,Z (ANG.)
                           1    12        1.75718     0.00000     3.31764
                           2    12       -0.87859     1.52176     3.31764
                           3    12       -0.87859    -1.52176     3.31764
  LAYER   5 Z=   2.1673; LABEL AT.NO.              X,Y,Z (ANG.)
                          14     8        0.00000     0.00000     2.16731
  LAYER   6 Z=   2.1418; LABEL AT.NO.              X,Y,Z (ANG.)
                           6     8        2.65840    -1.53483     2.14177
                           7     8       -2.65840     1.53483     2.14177
  LAYER   7 Z=   1.1990; LABEL AT.NO.              X,Y,Z (ANG.)
                          18     1        0.00000     0.00000     1.19898
  LAYER   8 Z=   0.5391; LABEL AT.NO.              X,Y,Z (ANG.)
                           4    14        2.65840    -1.53483     0.53907
                           5    14       -2.65840     1.53483     0.53907

 *************************** CELL ROTATION COMPLETE ***************************


 *******************************************************************************
 * TWO DIMENSIONAL SLAB PARALLEL TO THE SELECTED PLANE
 *******************************************************************************
         SURFACE LAYER NO.  2
         TOTAL NUMBER OF LAYERS:   8

 ORIGIN SHIFT TO MAXIMIZE USE OF SYMMETRY=     0.358

 NUMBER OF SYMMOPS=  6

 COORDINATES OF THE ATOMS BELONGING TO THE SLAB
 LAB AT.N.     CARTESIAN (ANG)        FRACTIONARY (3D)      FRAC (2D)     Z(ANG)
   1   1 -1.85682  0.00000  2.66774 -0.349  0.000  0.372 -0.349  0.000   2.66774
   2   1  0.92841 -1.60805  2.66774  0.000 -0.349  0.372  0.000 -0.349   2.66774
   3   1  0.92841  1.60805  2.66774  0.349  0.349  0.372  0.349  0.349   2.66774
   4   8 -1.77962  0.00000  1.69817 -0.335  0.000  0.237 -0.335  0.000   1.69817
   5   8  0.88981 -1.54119  1.69817  0.000 -0.335  0.237  0.000 -0.335   1.69817
   6   8  0.88981  1.54119  1.69817  0.335  0.335  0.237  0.335  0.335   1.69817
   7  12  1.75718  0.00000  0.74853  0.330  0.000  0.104  0.330  0.000   0.74853
   8  12 -0.87859  1.52176  0.74853  0.000  0.330  0.104  0.000  0.330   0.74853
   9  12 -0.87859 -1.52176  0.74853 -0.330 -0.330  0.104 -0.330 -0.330   0.74853
  10   8  0.00000  0.00000 -0.40181  0.000  0.000 -0.056  0.000  0.000  -0.40181
  11   8  2.65840 -1.53483 -0.42735  0.333 -0.333 -0.060  0.333 -0.333  -0.42735
  12   8 -2.65840  1.53483 -0.42735 -0.333  0.333 -0.060 -0.333  0.333  -0.42735
  13   1  0.00000  0.00000 -1.37014  0.000  0.000 -0.191  0.000  0.000  -1.37014
  14  14  2.65840 -1.53483 -2.03004  0.333 -0.333 -0.283  0.333 -0.333  -2.03004
  15  14 -2.65840  1.53483 -2.03004 -0.333  0.333 -0.283 -0.333  0.333  -2.03004
  16   8 -2.56690  0.00000 -2.66774 -0.483  0.000 -0.372 -0.483  0.000  -2.66774
  17   8  1.28345 -2.22300 -2.66774  0.000 -0.483 -0.372  0.000 -0.483  -2.66774
  18   8  1.28345  2.22300 -2.66774  0.483  0.483 -0.372  0.483  0.483  -2.66774


 ******************************* SLAB GENERATED *******************************
 *******************************************************************************
 *                                                                             *
 *                 CONSTRUCTION OF A NANOTUBE FROM A SLAB                      *
 *                                                                             *
 * Y. Noel, P. D'Arco, R. Demichelis, C.M. Zicovich-Wilson, R. Dovesi          *
 * On the use of symmetry in the ab initio quantum mechanical simulation of    *
 * nanotubes and related materials                                             *
 * J. Comp. Chem. (2009), in press                                             *
 *                                                                             *
 *******************************************************************************

 ********** NANOTUBE **********
 INPUT ROLL UP DIRECTION   14 -14
 *******************************

 DISTINCTIVE NANOTUBE VECTORS EXPRESSED IN THE SLAB UNIT CELL BASIS A AND B
                                                   A   B
       ROLL UP DIRECTION, R                       14 -14
       HELICAL DIRECTION, H                        0   1
       CYLINDER AXIS, L                            1   1

 LENGTHS IN ANGSTROM
       CYLINDER RADIUS                            20.519
       PERIOD ALONG THE CYLINDER AXIS, |L|         5.317
       THICKNESS OF THE SLAB                       5.335

 NUMBER OF ATOMS                                     504
 CHIRAL ANGLE                                      0.000 DEG

 NANOTUBE SYMMETRY
       NUMBER OF SYMMETRY OPERATORS                   28
       NUMBER OF ATOMS IN THE ASYMMETRIC UNIT         18
       THE HELICAL OPERATOR:
         ORDER                                        28
         ANGLE                                 (   3/ 28)x2PI RAD => 38.571 DEG
         TRANSLATION                               1/  2 OF THE CYLINDER PERIOD
                                                   2.6584 ANGSTROM


 GCALCO - MAX INDICES DIRECT LATTICE VECTOR 13998     0     0
 NO.OF VECTORS CREATED 6999 STARS 3500 RMAX 35155.47708 BOHR

 GEOMETRY FOR WAVE FUNCTION - DIMENSIONALITY OF THE SYSTEM    1
 (NON PERIODIC DIRECTION: LATTICE PARAMETER FORMALLY SET TO 500)
 *******************************************************************************
 LATTICE PARAMETERS (ANGSTROMS AND DEGREES) - BOHR = 0.5291772083 ANGSTROM
 PRIMITIVE CELL
         A              B              C           ALPHA      BETA       GAMMA 
     5.31679829   500.00000000   500.00000000    90.000000  90.000000  90.000000
 *******************************************************************************
 ATOMS IN THE ASYMMETRIC UNIT   18 - ATOMS IN THE UNIT CELL:  504
     ATOM              X/A             Y(ANGSTROM)         Z(ANGSTROM)   R(ANGS)
 *******************************************************************************
   1 T   1 H    -0.17461779814E+00  0.23115701212E+02 -0.18152555564E+01  23.187
   2 T   1 H    -0.17461779814E+00  0.23115701212E+02  0.18152555564E+01  23.187
   3 T   1 H     0.34923559628E+00  0.23186866870E+02  0.00000000000E+00  23.187
   4 T   8 O    -0.16735796433E+00  0.22154656879E+02 -0.16671743373E+01  22.217
   5 T   8 O    -0.16735796433E+00  0.22154656879E+02  0.16671743373E+01  22.217
   6 T   8 O     0.33471592866E+00  0.22217297128E+02  0.00000000000E+00  22.217
   7 T  12 MG    0.16524755684E+00  0.21209199343E+02  0.15758265169E+01  21.268
   8 T  12 MG    0.16524755684E+00  0.21209199343E+02 -0.15758265169E+01  21.268
   9 T  12 MG   -0.33049511369E+00  0.21267660097E+02 -0.11424628425E-15  21.268
  10 T   8 O     0.00000000000E+00  0.20117324127E+02  0.00000000000E+00  20.117
  11 T   8 O    -0.11102230246E-15  0.19867378029E+02  0.29945254192E+01  20.092
  12 T   8 O    -0.33306690739E-15  0.19867378029E+02 -0.29945254192E+01  20.092
  13 T   1 H     0.00000000000E+00  0.19148990845E+02  0.00000000000E+00  19.149
  14 T  14 SI   -0.11102230246E-15  0.18282582153E+02  0.27556558750E+01  18.489
  15 T  14 SI   -0.33306690739E-15  0.18282582153E+02 -0.27556558750E+01  18.489
  16 T   8 O    -0.24139529322E+00  0.17746737031E+02 -0.19302027692E+01  17.851
  17 T   8 O    -0.24139529322E+00  0.17746737031E+02  0.19302027692E+01  17.851
  18 T   8 O     0.48279058643E+00  0.17851396528E+02  0.00000000000E+00  17.851
  19 F   1 H     0.32538220186E+00  0.19204376274E+02  0.12993180026E+02  23.187
  20 F   1 H     0.32538220186E+00  0.16940789620E+02  0.15831627911E+02  23.187
  21 F   1 H    -0.15076440372E+00  0.18128222499E+02  0.14456775031E+02  23.187
  22 F   8 O     0.33264203567E+00  0.18360674428E+02  0.12509753244E+02  22.217
  23 F   8 O     0.33264203567E+00  0.16281742034E+02  0.15116652011E+02  22.217
  24 F   8 O    -0.16528407134E+00  0.17370182350E+02  0.13852258184E+02  22.217
  25 F  12 MG   -0.33475244316E+00  0.15599508002E+02  0.14455750278E+02  21.268
  26 F  12 MG   -0.33475244316E+00  0.17564531527E+02  0.11991688714E+02  21.268
  27 F  12 MG    0.16950488631E+00  0.16627726222E+02  0.13260169180E+02  21.268
  28 F   8 O     0.50000000000E+00  0.15728357346E+02  0.12542946434E+02  20.117
  29 F   8 O     0.50000000000E+00  0.13665885557E+02  0.14728321838E+02  20.092
  30 F   8 O     0.50000000000E+00  0.17399997677E+02  0.10045893343E+02  20.092
  31 F   1 H     0.50000000000E+00  0.14971283900E+02  0.11939200508E+02  19.149
  32 F  14 SI    0.50000000000E+00  0.12575774973E+02  0.13553462042E+02  18.489
  33 F  14 SI    0.50000000000E+00  0.16012021644E+02  0.92445450062E+01  18.489
  34 F   8 O     0.25860470678E+00  0.15078419464E+02  0.95558162628E+01  17.851
  35 F   8 O     0.25860470678E+00  0.12671495980E+02  0.12574002848E+02  17.851
  36 F   8 O    -0.17209413565E-01  0.13956783811E+02  0.11130163684E+02  17.851
  37 F   1 H    -0.17461779814E+00  0.69134707324E+01  0.22132209959E+02  23.187
  38 F   1 H    -0.17461779814E+00  0.33739841130E+01  0.22940074683E+02  23.187
  39 F   1 H     0.34923559628E+00  0.51595632714E+01  0.22605523708E+02  23.187
  40 F   8 O    -0.16735796433E+00  0.65552497361E+01  0.21228212186E+02  22.217
  41 F   8 O    -0.16735796433E+00  0.33045001443E+01  0.21970174567E+02  22.217
  42 F   8 O     0.33471592866E+00  0.49438137070E+01  0.21660263104E+02  22.217
  43 F  12 MG    0.16524755684E+00  0.31831735902E+01  0.21028094823E+02  21.268
  44 F  12 MG    0.16524755684E+00  0.62558081024E+01  0.20326786047E+02  21.268
  45 F  12 MG   -0.33049511369E+00  0.47324995878E+01  0.20734435455E+02  21.268
  46 F   8 O     0.00000000000E+00  0.44765257535E+01  0.19612940810E+02  20.117
  47 F   8 O     0.00000000000E+00  0.15014610994E+01  0.20035605975E+02  20.092
  48 F   8 O    -0.33306690739E-15  0.73403539292E+01  0.18702916789E+02  20.092
  49 F   1 H     0.00000000000E+00  0.42610513272E+01  0.18668885665E+02  19.149
  50 F  14 SI    0.00000000000E+00  0.13816914270E+01  0.18437390767E+02  18.489
  51 F  14 SI   -0.33306690739E-15  0.67548230847E+01  0.17211008529E+02  18.489
  52 F   8 O    -0.24139529322E+00  0.58308290547E+01  0.16872278759E+02  17.851
  53 F   8 O    -0.24139529322E+00  0.20672119430E+01  0.17731299805E+02  17.851
  54 F   8 O     0.48279058643E+00  0.39723094278E+01  0.17403824746E+02  17.851
  55 F   1 H     0.32538220186E+00 -0.83940381305E+01  0.21614137020E+02  23.187
  56 F   1 H     0.32538220186E+00 -0.11665015618E+02  0.20038917283E+02  23.187
  57 F   1 H    -0.15076440372E+00 -0.10060404496E+02  0.20890645194E+02  23.187
  58 F   8 O     0.33264203567E+00 -0.81104731903E+01  0.20684015962E+02  22.217
  59 F   8 O     0.33264203567E+00 -0.11114617541E+02  0.19237296292E+02  22.217
  60 F   8 O    -0.16528407134E+00 -0.96397239512E+01  0.20017093042E+02  22.217
  61 F  12 MG   -0.33475244316E+00 -0.10622097348E+02  0.18425102820E+02  21.268
  62 F  12 MG   -0.33475244316E+00 -0.77825560818E+01  0.19792553823E+02  21.268
  63 F  12 MG    0.16950488631E+00 -0.92276918851E+01  0.19161499640E+02  21.268
  64 F   8 O     0.50000000000E+00 -0.87285798133E+01  0.18125082744E+02  20.117
  65 F   8 O     0.50000000000E+00 -0.11318106442E+02  0.16600613205E+02  20.092
  66 F   8 O     0.50000000000E+00 -0.59221580888E+01  0.19199164977E+02  20.092
  67 F   1 H     0.50000000000E+00 -0.83084357483E+01  0.17252644603E+02  19.149
  68 F  14 SI    0.50000000000E+00 -0.10415275259E+02  0.15276403070E+02  18.489
  69 F  14 SI    0.50000000000E+00 -0.54497549513E+01  0.17667671620E+02  18.489
  70 F   8 O     0.25860470678E+00 -0.59609680165E+01  0.16826741167E+02  17.851
  71 F   8 O     0.25860470678E+00 -0.94390732240E+01  0.15151773977E+02  17.851
  72 F   8 O    -0.17209413565E-01 -0.77454306739E+01  0.16083552520E+02  17.851
  73 F   1 H    -0.17461779814E+00 -0.20038917283E+02  0.11665015618E+02  23.187
  74 F   1 H    -0.17461779814E+00 -0.21614137020E+02  0.83940381305E+01  23.187
  75 F   1 H     0.34923559628E+00 -0.20890645194E+02  0.10060404496E+02  23.187
  76 F   8 O    -0.16735796433E+00 -0.19237296292E+02  0.11114617541E+02  22.217
  77 F   8 O    -0.16735796433E+00 -0.20684015962E+02  0.81104731903E+01  22.217
  78 F   8 O     0.33471592866E+00 -0.20017093042E+02  0.96397239512E+01  22.217
  79 F  12 MG    0.16524755684E+00 -0.19792553823E+02  0.77825560818E+01  21.268
  80 F  12 MG    0.16524755684E+00 -0.18425102820E+02  0.10622097348E+02  21.268
  81 F  12 MG   -0.33049511369E+00 -0.19161499640E+02  0.92276918851E+01  21.268
  82 F   8 O     0.00000000000E+00 -0.18125082744E+02  0.87285798133E+01  20.117
  83 F   8 O     0.16705136649E-15 -0.19199164977E+02  0.59221580888E+01  20.092
  84 F   8 O     0.00000000000E+00 -0.16600613205E+02  0.11318106442E+02  20.092
  85 F   1 H     0.00000000000E+00 -0.17252644603E+02  0.83084357483E+01  19.149
  86 F  14 SI    0.16705136649E-15 -0.17667671620E+02  0.54497549513E+01  18.489
  87 F  14 SI    0.00000000000E+00 -0.15276403070E+02  0.10415275259E+02  18.489
  88 F   8 O    -0.24139529322E+00 -0.15151773977E+02  0.94390732240E+01  17.851
  89 F   8 O    -0.24139529322E+00 -0.16826741167E+02  0.59609680165E+01  17.851
  90 F   8 O     0.48279058643E+00 -0.16083552520E+02  0.77454306739E+01  17.851
  91 F   1 H     0.32538220186E+00 -0.22940074683E+02 -0.33739841130E+01  23.187
  92 F   1 H     0.32538220186E+00 -0.22132209959E+02 -0.69134707324E+01  23.187
  93 F   1 H    -0.15076440372E+00 -0.22605523708E+02 -0.51595632714E+01  23.187
  94 F   8 O     0.33264203567E+00 -0.21970174567E+02 -0.33045001443E+01  22.217
  95 F   8 O     0.33264203567E+00 -0.21228212186E+02 -0.65552497361E+01  22.217
  96 F   8 O    -0.16528407134E+00 -0.21660263104E+02 -0.49438137070E+01  22.217
  97 F  12 MG   -0.33475244316E+00 -0.20326786047E+02 -0.62558081024E+01  21.268
  98 F  12 MG   -0.33475244316E+00 -0.21028094823E+02 -0.31831735902E+01  21.268
  99 F  12 MG    0.16950488631E+00 -0.20734435455E+02 -0.47324995878E+01  21.268
 100 F   8 O     0.50000000000E+00 -0.19612940810E+02 -0.44765257535E+01  20.117
 101 F   8 O     0.50000000000E+00 -0.18702916789E+02 -0.73403539292E+01  20.092
 102 F   8 O     0.50000000000E+00 -0.20035605975E+02 -0.15014610994E+01  20.092
 103 F   1 H     0.50000000000E+00 -0.18668885665E+02 -0.42610513272E+01  19.149
 104 F  14 SI    0.50000000000E+00 -0.17211008529E+02 -0.67548230847E+01  18.489
 105 F  14 SI    0.50000000000E+00 -0.18437390767E+02 -0.13816914270E+01  18.489
 106 F   8 O     0.25860470678E+00 -0.17731299805E+02 -0.20672119430E+01  17.851
 107 F   8 O     0.25860470678E+00 -0.16872278759E+02 -0.58308290547E+01  17.851
 108 F   8 O    -0.17209413565E-01 -0.17403824746E+02 -0.39723094278E+01  17.851
 109 F   1 H    -0.17461779814E+00 -0.15831627911E+02 -0.16940789620E+02  23.187
 110 F   1 H    -0.17461779814E+00 -0.12993180026E+02 -0.19204376274E+02  23.187
 111 F   1 H     0.34923559628E+00 -0.14456775031E+02 -0.18128222499E+02  23.187
 112 F   8 O    -0.16735796433E+00 -0.15116652011E+02 -0.16281742034E+02  22.217
 113 F   8 O    -0.16735796433E+00 -0.12509753244E+02 -0.18360674428E+02  22.217
 114 F   8 O     0.33471592866E+00 -0.13852258184E+02 -0.17370182350E+02  22.217
 115 F  12 MG    0.16524755684E+00 -0.11991688714E+02 -0.17564531527E+02  21.268
 116 F  12 MG    0.16524755684E+00 -0.14455750278E+02 -0.15599508002E+02  21.268
 117 F  12 MG   -0.33049511369E+00 -0.13260169180E+02 -0.16627726222E+02  21.268
 118 F   8 O     0.00000000000E+00 -0.12542946434E+02 -0.15728357346E+02  20.117
 119 F   8 O    -0.16705136649E-15 -0.10045893343E+02 -0.17399997677E+02  20.092
 120 F   8 O    -0.33306690739E-15 -0.14728321838E+02 -0.13665885557E+02  20.092
 121 F   1 H     0.00000000000E+00 -0.11939200508E+02 -0.14971283900E+02  19.149
 122 F  14 SI   -0.16705136649E-15 -0.92445450062E+01 -0.16012021644E+02  18.489
 123 F  14 SI   -0.33306690739E-15 -0.13553462042E+02 -0.12575774973E+02  18.489
 124 F   8 O    -0.24139529322E+00 -0.12574002848E+02 -0.12671495980E+02  17.851
 125 F   8 O    -0.24139529322E+00 -0.95558162628E+01 -0.15078419464E+02  17.851
 126 F   8 O     0.48279058643E+00 -0.11130163684E+02 -0.13956783811E+02  17.851
 127 F   1 H     0.32538220186E+00 -0.18152555564E+01 -0.23115701212E+02  23.187
 128 F   1 H     0.32538220186E+00  0.18152555564E+01 -0.23115701212E+02  23.187
 129 F   1 H    -0.15076440372E+00 -0.42593583442E-14 -0.23186866870E+02  23.187
 130 F   8 O     0.33264203567E+00 -0.16671743373E+01 -0.22154656879E+02  22.217
 131 F   8 O     0.33264203567E+00  0.16671743373E+01 -0.22154656879E+02  22.217
 132 F   8 O    -0.16528407134E+00 -0.40812512721E-14 -0.22217297128E+02  22.217
 133 F  12 MG   -0.33475244316E+00  0.15758265169E+01 -0.21209199343E+02  21.268
 134 F  12 MG   -0.33475244316E+00 -0.15758265169E+01 -0.21209199343E+02  21.268
 135 F  12 MG    0.16950488631E+00 -0.40210520637E-14 -0.21267660097E+02  21.268
 136 F   8 O     0.50000000000E+00 -0.36954924899E-14 -0.20117324127E+02  20.117
 137 F   8 O     0.50000000000E+00  0.29945254192E+01 -0.19867378029E+02  20.092
 138 F   8 O     0.50000000000E+00 -0.29945254192E+01 -0.19867378029E+02  20.092
 139 F   1 H     0.50000000000E+00 -0.35176125518E-14 -0.19148990845E+02  19.149
 140 F  14 SI    0.50000000000E+00  0.27556558750E+01 -0.18282582153E+02  18.489
 141 F  14 SI    0.50000000000E+00 -0.27556558750E+01 -0.18282582153E+02  18.489
 142 F   8 O     0.25860470678E+00 -0.19302027692E+01 -0.17746737031E+02  17.851
 143 F   8 O     0.25860470678E+00  0.19302027692E+01 -0.17746737031E+02  17.851
 144 F   8 O    -0.17209413565E-01 -0.32792483427E-14 -0.17851396528E+02  17.851
 145 F   1 H    -0.17461779814E+00  0.12993180026E+02 -0.19204376274E+02  23.187
 146 F   1 H    -0.17461779814E+00  0.15831627911E+02 -0.16940789620E+02  23.187
 147 F   1 H     0.34923559628E+00  0.14456775031E+02 -0.18128222499E+02  23.187
 148 F   8 O    -0.16735796433E+00  0.12509753244E+02 -0.18360674428E+02  22.217
 149 F   8 O    -0.16735796433E+00  0.15116652011E+02 -0.16281742034E+02  22.217
 150 F   8 O     0.33471592866E+00  0.13852258184E+02 -0.17370182350E+02  22.217
 151 F  12 MG    0.16524755684E+00  0.14455750278E+02 -0.15599508002E+02  21.268
 152 F  12 MG    0.16524755684E+00  0.11991688714E+02 -0.17564531527E+02  21.268
 153 F  12 MG   -0.33049511369E+00  0.13260169180E+02 -0.16627726222E+02  21.268
 154 F   8 O     0.00000000000E+00  0.12542946434E+02 -0.15728357346E+02  20.117
 155 F   8 O    -0.16705136649E-15  0.14728321838E+02 -0.13665885557E+02  20.092
 156 F   8 O    -0.33306690739E-15  0.10045893343E+02 -0.17399997677E+02  20.092
 157 F   1 H     0.00000000000E+00  0.11939200508E+02 -0.14971283900E+02  19.149
 158 F  14 SI   -0.16705136649E-15  0.13553462042E+02 -0.12575774973E+02  18.489
 159 F  14 SI   -0.33306690739E-15  0.92445450062E+01 -0.16012021644E+02  18.489
 160 F   8 O    -0.24139529322E+00  0.95558162628E+01 -0.15078419464E+02  17.851
 161 F   8 O    -0.24139529322E+00  0.12574002848E+02 -0.12671495980E+02  17.851
 162 F   8 O     0.48279058643E+00  0.11130163684E+02 -0.13956783811E+02  17.851
 163 F   1 H     0.32538220186E+00  0.22132209959E+02 -0.69134707324E+01  23.187
 164 F   1 H     0.32538220186E+00  0.22940074683E+02 -0.33739841130E+01  23.187
 165 F   1 H    -0.15076440372E+00  0.22605523708E+02 -0.51595632714E+01  23.187
 166 F   8 O     0.33264203567E+00  0.21228212186E+02 -0.65552497361E+01  22.217
 167 F   8 O     0.33264203567E+00  0.21970174567E+02 -0.33045001443E+01  22.217
 168 F   8 O    -0.16528407134E+00  0.21660263104E+02 -0.49438137070E+01  22.217
 169 F  12 MG   -0.33475244316E+00  0.21028094823E+02 -0.31831735902E+01  21.268
 170 F  12 MG   -0.33475244316E+00  0.20326786047E+02 -0.62558081024E+01  21.268
 171 F  12 MG    0.16950488631E+00  0.20734435455E+02 -0.47324995878E+01  21.268
 172 F   8 O     0.50000000000E+00  0.19612940810E+02 -0.44765257535E+01  20.117
 173 F   8 O     0.50000000000E+00  0.20035605975E+02 -0.15014610994E+01  20.092
 174 F   8 O     0.50000000000E+00  0.18702916789E+02 -0.73403539292E+01  20.092
 175 F   1 H     0.50000000000E+00  0.18668885665E+02 -0.42610513272E+01  19.149
 176 F  14 SI    0.50000000000E+00  0.18437390767E+02 -0.13816914270E+01  18.489
 177 F  14 SI    0.50000000000E+00  0.17211008529E+02 -0.67548230847E+01  18.489
 178 F   8 O     0.25860470678E+00  0.16872278759E+02 -0.58308290547E+01  17.851
 179 F   8 O     0.25860470678E+00  0.17731299805E+02 -0.20672119430E+01  17.851
 180 F   8 O    -0.17209413565E-01  0.17403824746E+02 -0.39723094278E+01  17.851
 181 F   1 H    -0.17461779814E+00  0.21614137020E+02  0.83940381305E+01  23.187
 182 F   1 H    -0.17461779814E+00  0.20038917283E+02  0.11665015618E+02  23.187
 183 F   1 H     0.34923559628E+00  0.20890645194E+02  0.10060404496E+02  23.187
 184 F   8 O    -0.16735796433E+00  0.20684015962E+02  0.81104731903E+01  22.217
 185 F   8 O    -0.16735796433E+00  0.19237296292E+02  0.11114617541E+02  22.217
 186 F   8 O     0.33471592866E+00  0.20017093042E+02  0.96397239512E+01  22.217
 187 F  12 MG    0.16524755684E+00  0.18425102820E+02  0.10622097348E+02  21.268
 188 F  12 MG    0.16524755684E+00  0.19792553823E+02  0.77825560818E+01  21.268
 189 F  12 MG   -0.33049511369E+00  0.19161499640E+02  0.92276918851E+01  21.268
 190 F   8 O     0.00000000000E+00  0.18125082744E+02  0.87285798133E+01  20.117
 191 F   8 O     0.50115409947E-15  0.16600613205E+02  0.11318106442E+02  20.092
 192 F   8 O     0.33410273298E-15  0.19199164977E+02  0.59221580888E+01  20.092
 193 F   1 H     0.00000000000E+00  0.17252644603E+02  0.83084357483E+01  19.149
 194 F  14 SI    0.50115409947E-15  0.15276403070E+02  0.10415275259E+02  18.489
 195 F  14 SI    0.33410273298E-15  0.17667671620E+02  0.54497549513E+01  18.489
 196 F   8 O    -0.24139529322E+00  0.16826741167E+02  0.59609680165E+01  17.851
 197 F   8 O    -0.24139529322E+00  0.15151773977E+02  0.94390732240E+01  17.851
 198 F   8 O     0.48279058643E+00  0.16083552520E+02  0.77454306739E+01  17.851
 199 F   1 H     0.32538220186E+00  0.11665015618E+02  0.20038917283E+02  23.187
 200 F   1 H     0.32538220186E+00  0.83940381305E+01  0.21614137020E+02  23.187
 201 F   1 H    -0.15076440372E+00  0.10060404496E+02  0.20890645194E+02  23.187
 202 F   8 O     0.33264203567E+00  0.11114617541E+02  0.19237296292E+02  22.217
 203 F   8 O     0.33264203567E+00  0.81104731903E+01  0.20684015962E+02  22.217
 204 F   8 O    -0.16528407134E+00  0.96397239512E+01  0.20017093042E+02  22.217
 205 F  12 MG   -0.33475244316E+00  0.77825560818E+01  0.19792553823E+02  21.268
 206 F  12 MG   -0.33475244316E+00  0.10622097348E+02  0.18425102820E+02  21.268
 207 F  12 MG    0.16950488631E+00  0.92276918851E+01  0.19161499640E+02  21.268
 208 F   8 O     0.50000000000E+00  0.87285798133E+01  0.18125082744E+02  20.117
 209 F   8 O     0.50000000000E+00  0.59221580888E+01  0.19199164977E+02  20.092
 210 F   8 O     0.50000000000E+00  0.11318106442E+02  0.16600613205E+02  20.092
 211 F   1 H     0.50000000000E+00  0.83084357483E+01  0.17252644603E+02  19.149
 212 F  14 SI    0.50000000000E+00  0.54497549513E+01  0.17667671620E+02  18.489
 213 F  14 SI    0.50000000000E+00  0.10415275259E+02  0.15276403070E+02  18.489
 214 F   8 O     0.25860470678E+00  0.94390732240E+01  0.15151773977E+02  17.851
 215 F   8 O     0.25860470678E+00  0.59609680165E+01  0.16826741167E+02  17.851
 216 F   8 O    -0.17209413565E-01  0.77454306739E+01  0.16083552520E+02  17.851
 217 F   1 H    -0.17461779814E+00 -0.33739841130E+01  0.22940074683E+02  23.187
 218 F   1 H    -0.17461779814E+00 -0.69134707324E+01  0.22132209959E+02  23.187
 219 F   1 H     0.34923559628E+00 -0.51595632714E+01  0.22605523708E+02  23.187
 220 F   8 O    -0.16735796433E+00 -0.33045001443E+01  0.21970174567E+02  22.217
 221 F   8 O    -0.16735796433E+00 -0.65552497361E+01  0.21228212186E+02  22.217
 222 F   8 O     0.33471592866E+00 -0.49438137070E+01  0.21660263104E+02  22.217
 223 F  12 MG    0.16524755684E+00 -0.62558081024E+01  0.20326786047E+02  21.268
 224 F  12 MG    0.16524755684E+00 -0.31831735902E+01  0.21028094823E+02  21.268
 225 F  12 MG   -0.33049511369E+00 -0.47324995878E+01  0.20734435455E+02  21.268
 226 F   8 O     0.00000000000E+00 -0.44765257535E+01  0.19612940810E+02  20.117
 227 F   8 O    -0.16705136649E-15 -0.73403539292E+01  0.18702916789E+02  20.092
 228 F   8 O    -0.33410273298E-15 -0.15014610994E+01  0.20035605975E+02  20.092
 229 F   1 H     0.00000000000E+00 -0.42610513272E+01  0.18668885665E+02  19.149
 230 F  14 SI   -0.16705136649E-15 -0.67548230847E+01  0.17211008529E+02  18.489
 231 F  14 SI   -0.33410273298E-15 -0.13816914270E+01  0.18437390767E+02  18.489
 232 F   8 O    -0.24139529322E+00 -0.20672119430E+01  0.17731299805E+02  17.851
 233 F   8 O    -0.24139529322E+00 -0.58308290547E+01  0.16872278759E+02  17.851
 234 F   8 O     0.48279058643E+00 -0.39723094278E+01  0.17403824746E+02  17.851
 235 F   1 H     0.32538220186E+00 -0.16940789620E+02  0.15831627911E+02  23.187
 236 F   1 H     0.32538220186E+00 -0.19204376274E+02  0.12993180026E+02  23.187
 237 F   1 H    -0.15076440372E+00 -0.18128222499E+02  0.14456775031E+02  23.187
 238 F   8 O     0.33264203567E+00 -0.16281742034E+02  0.15116652011E+02  22.217
 239 F   8 O     0.33264203567E+00 -0.18360674428E+02  0.12509753244E+02  22.217
 240 F   8 O    -0.16528407134E+00 -0.17370182350E+02  0.13852258184E+02  22.217
 241 F  12 MG   -0.33475244316E+00 -0.17564531527E+02  0.11991688714E+02  21.268
 242 F  12 MG   -0.33475244316E+00 -0.15599508002E+02  0.14455750278E+02  21.268
 243 F  12 MG    0.16950488631E+00 -0.16627726222E+02  0.13260169180E+02  21.268
 244 F   8 O     0.50000000000E+00 -0.15728357346E+02  0.12542946434E+02  20.117
 245 F   8 O     0.50000000000E+00 -0.17399997677E+02  0.10045893343E+02  20.092
 246 F   8 O     0.50000000000E+00 -0.13665885557E+02  0.14728321838E+02  20.092
 247 F   1 H     0.50000000000E+00 -0.14971283900E+02  0.11939200508E+02  19.149
 248 F  14 SI    0.50000000000E+00 -0.16012021644E+02  0.92445450062E+01  18.489
 249 F  14 SI    0.50000000000E+00 -0.12575774973E+02  0.13553462042E+02  18.489
 250 F   8 O     0.25860470678E+00 -0.12671495980E+02  0.12574002848E+02  17.851
 251 F   8 O     0.25860470678E+00 -0.15078419464E+02  0.95558162628E+01  17.851
 252 F   8 O    -0.17209413565E-01 -0.13956783811E+02  0.11130163684E+02  17.851
 253 F   1 H    -0.17461779814E+00 -0.23115701212E+02  0.18152555564E+01  23.187
 254 F   1 H    -0.17461779814E+00 -0.23115701212E+02 -0.18152555564E+01  23.187
 255 F   1 H     0.34923559628E+00 -0.23186866870E+02  0.85187166884E-14  23.187
 256 F   8 O    -0.16735796433E+00 -0.22154656879E+02  0.16671743373E+01  22.217
 257 F   8 O    -0.16735796433E+00 -0.22154656879E+02 -0.16671743373E+01  22.217
 258 F   8 O     0.33471592866E+00 -0.22217297128E+02  0.81625025442E-14  22.217
 259 F  12 MG    0.16524755684E+00 -0.21209199343E+02 -0.15758265169E+01  21.268
 260 F  12 MG    0.16524755684E+00 -0.21209199343E+02  0.15758265169E+01  21.268
 261 F  12 MG   -0.33049511369E+00 -0.21267660097E+02  0.79278578431E-14  21.268
 262 F   8 O     0.00000000000E+00 -0.20117324127E+02  0.73909849799E-14  20.117
 263 F   8 O    -0.16705136649E-15 -0.19867378029E+02 -0.29945254192E+01  20.092
 264 F   8 O    -0.33410273298E-15 -0.19867378029E+02  0.29945254192E+01  20.092
 265 F   1 H     0.00000000000E+00 -0.19148990845E+02  0.70352251037E-14  19.149
 266 F  14 SI   -0.16705136649E-15 -0.18282582153E+02 -0.27556558750E+01  18.489
 267 F  14 SI   -0.33410273298E-15 -0.18282582153E+02  0.27556558750E+01  18.489
 268 F   8 O    -0.24139529322E+00 -0.17746737031E+02  0.19302027692E+01  17.851
 269 F   8 O    -0.24139529322E+00 -0.17746737031E+02 -0.19302027692E+01  17.851
 270 F   8 O     0.48279058643E+00 -0.17851396528E+02  0.65584966854E-14  17.851
 271 F   1 H     0.32538220186E+00 -0.19204376274E+02 -0.12993180026E+02  23.187
 272 F   1 H     0.32538220186E+00 -0.16940789620E+02 -0.15831627911E+02  23.187
 273 F   1 H    -0.15076440372E+00 -0.18128222499E+02 -0.14456775031E+02  23.187
 274 F   8 O     0.33264203567E+00 -0.18360674428E+02 -0.12509753244E+02  22.217
 275 F   8 O     0.33264203567E+00 -0.16281742034E+02 -0.15116652011E+02  22.217
 276 F   8 O    -0.16528407134E+00 -0.17370182350E+02 -0.13852258184E+02  22.217
 277 F  12 MG   -0.33475244316E+00 -0.15599508002E+02 -0.14455750278E+02  21.268
 278 F  12 MG   -0.33475244316E+00 -0.17564531527E+02 -0.11991688714E+02  21.268
 279 F  12 MG    0.16950488631E+00 -0.16627726222E+02 -0.13260169180E+02  21.268
 280 F   8 O     0.50000000000E+00 -0.15728357346E+02 -0.12542946434E+02  20.117
 281 F   8 O     0.50000000000E+00 -0.13665885557E+02 -0.14728321838E+02  20.092
 282 F   8 O     0.50000000000E+00 -0.17399997677E+02 -0.10045893343E+02  20.092
 283 F   1 H     0.50000000000E+00 -0.14971283900E+02 -0.11939200508E+02  19.149
 284 F  14 SI    0.50000000000E+00 -0.12575774973E+02 -0.13553462042E+02  18.489
 285 F  14 SI    0.50000000000E+00 -0.16012021644E+02 -0.92445450062E+01  18.489
 286 F   8 O     0.25860470678E+00 -0.15078419464E+02 -0.95558162628E+01  17.851
 287 F   8 O     0.25860470678E+00 -0.12671495980E+02 -0.12574002848E+02  17.851
 288 F   8 O    -0.17209413565E-01 -0.13956783811E+02 -0.11130163684E+02  17.851
 289 F   1 H    -0.17461779814E+00 -0.69134707324E+01 -0.22132209959E+02  23.187
 290 F   1 H    -0.17461779814E+00 -0.33739841130E+01 -0.22940074683E+02  23.187
 291 F   1 H     0.34923559628E+00 -0.51595632714E+01 -0.22605523708E+02  23.187
 292 F   8 O    -0.16735796433E+00 -0.65552497361E+01 -0.21228212186E+02  22.217
 293 F   8 O    -0.16735796433E+00 -0.33045001443E+01 -0.21970174567E+02  22.217
 294 F   8 O     0.33471592866E+00 -0.49438137070E+01 -0.21660263104E+02  22.217
 295 F  12 MG    0.16524755684E+00 -0.31831735902E+01 -0.21028094823E+02  21.268
 296 F  12 MG    0.16524755684E+00 -0.62558081024E+01 -0.20326786047E+02  21.268
 297 F  12 MG   -0.33049511369E+00 -0.47324995878E+01 -0.20734435455E+02  21.268
 298 F   8 O     0.00000000000E+00 -0.44765257535E+01 -0.19612940810E+02  20.117
 299 F   8 O    -0.16705136649E-15 -0.15014610994E+01 -0.20035605975E+02  20.092
 300 F   8 O    -0.33410273298E-15 -0.73403539292E+01 -0.18702916789E+02  20.092
 301 F   1 H     0.00000000000E+00 -0.42610513272E+01 -0.18668885665E+02  19.149
 302 F  14 SI   -0.16705136649E-15 -0.13816914270E+01 -0.18437390767E+02  18.489
 303 F  14 SI   -0.33410273298E-15 -0.67548230847E+01 -0.17211008529E+02  18.489
 304 F   8 O    -0.24139529322E+00 -0.58308290547E+01 -0.16872278759E+02  17.851
 305 F   8 O    -0.24139529322E+00 -0.20672119430E+01 -0.17731299805E+02  17.851
 306 F   8 O     0.48279058643E+00 -0.39723094278E+01 -0.17403824746E+02  17.851
 307 F   1 H     0.32538220186E+00  0.83940381305E+01 -0.21614137020E+02  23.187
 308 F   1 H     0.32538220186E+00  0.11665015618E+02 -0.20038917283E+02  23.187
 309 F   1 H    -0.15076440372E+00  0.10060404496E+02 -0.20890645194E+02  23.187
 310 F   8 O     0.33264203567E+00  0.81104731903E+01 -0.20684015962E+02  22.217
 311 F   8 O     0.33264203567E+00  0.11114617541E+02 -0.19237296292E+02  22.217
 312 F   8 O    -0.16528407134E+00  0.96397239512E+01 -0.20017093042E+02  22.217
 313 F  12 MG   -0.33475244316E+00  0.10622097348E+02 -0.18425102820E+02  21.268
 314 F  12 MG   -0.33475244316E+00  0.77825560818E+01 -0.19792553823E+02  21.268
 315 F  12 MG    0.16950488631E+00  0.92276918851E+01 -0.19161499640E+02  21.268
 316 F   8 O     0.50000000000E+00  0.87285798133E+01 -0.18125082744E+02  20.117
 317 F   8 O     0.50000000000E+00  0.11318106442E+02 -0.16600613205E+02  20.092
 318 F   8 O     0.50000000000E+00  0.59221580888E+01 -0.19199164977E+02  20.092
 319 F   1 H     0.50000000000E+00  0.83084357483E+01 -0.17252644603E+02  19.149
 320 F  14 SI    0.50000000000E+00  0.10415275259E+02 -0.15276403070E+02  18.489
 321 F  14 SI    0.50000000000E+00  0.54497549513E+01 -0.17667671620E+02  18.489
 322 F   8 O     0.25860470678E+00  0.59609680165E+01 -0.16826741167E+02  17.851
 323 F   8 O     0.25860470678E+00  0.94390732240E+01 -0.15151773977E+02  17.851
 324 F   8 O    -0.17209413565E-01  0.77454306739E+01 -0.16083552520E+02  17.851
 325 F   1 H    -0.17461779814E+00  0.20038917283E+02 -0.11665015618E+02  23.187
 326 F   1 H    -0.17461779814E+00  0.21614137020E+02 -0.83940381305E+01  23.187
 327 F   1 H     0.34923559628E+00  0.20890645194E+02 -0.10060404496E+02  23.187
 328 F   8 O    -0.16735796433E+00  0.19237296292E+02 -0.11114617541E+02  22.217
 329 F   8 O    -0.16735796433E+00  0.20684015962E+02 -0.81104731903E+01  22.217
 330 F   8 O     0.33471592866E+00  0.20017093042E+02 -0.96397239512E+01  22.217
 331 F  12 MG    0.16524755684E+00  0.19792553823E+02 -0.77825560818E+01  21.268
 332 F  12 MG    0.16524755684E+00  0.18425102820E+02 -0.10622097348E+02  21.268
 333 F  12 MG   -0.33049511369E+00  0.19161499640E+02 -0.92276918851E+01  21.268
 334 F   8 O     0.00000000000E+00  0.18125082744E+02 -0.87285798133E+01  20.117
 335 F   8 O    -0.16705136649E-15  0.19199164977E+02 -0.59221580888E+01  20.092
 336 F   8 O    -0.33410273298E-15  0.16600613205E+02 -0.11318106442E+02  20.092
 337 F   1 H     0.00000000000E+00  0.17252644603E+02 -0.83084357483E+01  19.149
 338 F  14 SI   -0.16705136649E-15  0.17667671620E+02 -0.54497549513E+01  18.489
 339 F  14 SI   -0.33410273298E-15  0.15276403070E+02 -0.10415275259E+02  18.489
 340 F   8 O    -0.24139529322E+00  0.15151773977E+02 -0.94390732240E+01  17.851
 341 F   8 O    -0.24139529322E+00  0.16826741167E+02 -0.59609680165E+01  17.851
 342 F   8 O     0.48279058643E+00  0.16083552520E+02 -0.77454306739E+01  17.851
 343 F   1 H     0.32538220186E+00  0.22940074683E+02  0.33739841130E+01  23.187
 344 F   1 H     0.32538220186E+00  0.22132209959E+02  0.69134707324E+01  23.187
 345 F   1 H    -0.15076440372E+00  0.22605523708E+02  0.51595632714E+01  23.187
 346 F   8 O     0.33264203567E+00  0.21970174567E+02  0.33045001443E+01  22.217
 347 F   8 O     0.33264203567E+00  0.21228212186E+02  0.65552497361E+01  22.217
 348 F   8 O    -0.16528407134E+00  0.21660263104E+02  0.49438137070E+01  22.217
 349 F  12 MG   -0.33475244316E+00  0.20326786047E+02  0.62558081024E+01  21.268
 350 F  12 MG   -0.33475244316E+00  0.21028094823E+02  0.31831735902E+01  21.268
 351 F  12 MG    0.16950488631E+00  0.20734435455E+02  0.47324995878E+01  21.268
 352 F   8 O     0.50000000000E+00  0.19612940810E+02  0.44765257535E+01  20.117
 353 F   8 O     0.50000000000E+00  0.18702916789E+02  0.73403539292E+01  20.092
 354 F   8 O     0.50000000000E+00  0.20035605975E+02  0.15014610994E+01  20.092
 355 F   1 H     0.50000000000E+00  0.18668885665E+02  0.42610513272E+01  19.149
 356 F  14 SI    0.50000000000E+00  0.17211008529E+02  0.67548230847E+01  18.489
 357 F  14 SI    0.50000000000E+00  0.18437390767E+02  0.13816914270E+01  18.489
 358 F   8 O     0.25860470678E+00  0.17731299805E+02  0.20672119430E+01  17.851
 359 F   8 O     0.25860470678E+00  0.16872278759E+02  0.58308290547E+01  17.851
 360 F   8 O    -0.17209413565E-01  0.17403824746E+02  0.39723094278E+01  17.851
 361 F   1 H    -0.17461779814E+00  0.15831627911E+02  0.16940789620E+02  23.187
 362 F   1 H    -0.17461779814E+00  0.12993180026E+02  0.19204376274E+02  23.187
 363 F   1 H     0.34923559628E+00  0.14456775031E+02  0.18128222499E+02  23.187
 364 F   8 O    -0.16735796433E+00  0.15116652011E+02  0.16281742034E+02  22.217
 365 F   8 O    -0.16735796433E+00  0.12509753244E+02  0.18360674428E+02  22.217
 366 F   8 O     0.33471592866E+00  0.13852258184E+02  0.17370182350E+02  22.217
 367 F  12 MG    0.16524755684E+00  0.11991688714E+02  0.17564531527E+02  21.268
 368 F  12 MG    0.16524755684E+00  0.14455750278E+02  0.15599508002E+02  21.268
 369 F  12 MG   -0.33049511369E+00  0.13260169180E+02  0.16627726222E+02  21.268
 370 F   8 O     0.00000000000E+00  0.12542946434E+02  0.15728357346E+02  20.117
 371 F   8 O    -0.16705136649E-15  0.10045893343E+02  0.17399997677E+02  20.092
 372 F   8 O    -0.33410273298E-15  0.14728321838E+02  0.13665885557E+02  20.092
 373 F   1 H     0.00000000000E+00  0.11939200508E+02  0.14971283900E+02  19.149
 374 F  14 SI   -0.16705136649E-15  0.92445450062E+01  0.16012021644E+02  18.489
 375 F  14 SI   -0.33410273298E-15  0.13553462042E+02  0.12575774973E+02  18.489
 376 F   8 O    -0.24139529322E+00  0.12574002848E+02  0.12671495980E+02  17.851
 377 F   8 O    -0.24139529322E+00  0.95558162628E+01  0.15078419464E+02  17.851
 378 F   8 O     0.48279058643E+00  0.11130163684E+02  0.13956783811E+02  17.851
 379 F   1 H     0.32538220186E+00  0.18152555564E+01  0.23115701212E+02  23.187
 380 F   1 H     0.32538220186E+00 -0.18152555564E+01  0.23115701212E+02  23.187
 381 F   1 H    -0.15076440372E+00  0.12778075033E-13  0.23186866870E+02  23.187
 382 F   8 O     0.33264203567E+00  0.16671743373E+01  0.22154656879E+02  22.217
 383 F   8 O     0.33264203567E+00 -0.16671743373E+01  0.22154656879E+02  22.217
 384 F   8 O    -0.16528407134E+00  0.12243753816E-13  0.22217297128E+02  22.217
 385 F  12 MG   -0.33475244316E+00 -0.15758265169E+01  0.21209199343E+02  21.268
 386 F  12 MG   -0.33475244316E+00  0.15758265169E+01  0.21209199343E+02  21.268
 387 F  12 MG    0.16950488631E+00  0.11834663623E-13  0.21267660097E+02  21.268
 388 F   8 O     0.50000000000E+00  0.11086477470E-13  0.20117324127E+02  20.117
 389 F   8 O     0.50000000000E+00 -0.29945254192E+01  0.19867378029E+02  20.092
 390 F   8 O     0.50000000000E+00  0.29945254192E+01  0.19867378029E+02  20.092
 391 F   1 H     0.50000000000E+00  0.10552837656E-13  0.19148990845E+02  19.149
 392 F  14 SI    0.50000000000E+00 -0.27556558750E+01  0.18282582153E+02  18.489
 393 F  14 SI    0.50000000000E+00  0.27556558750E+01  0.18282582153E+02  18.489
 394 F   8 O     0.25860470678E+00  0.19302027692E+01  0.17746737031E+02  17.851
 395 F   8 O     0.25860470678E+00 -0.19302027692E+01  0.17746737031E+02  17.851
 396 F   8 O    -0.17209413565E-01  0.98377450280E-14  0.17851396528E+02  17.851
 397 F   1 H    -0.17461779814E+00 -0.12993180026E+02  0.19204376274E+02  23.187
 398 F   1 H    -0.17461779814E+00 -0.15831627911E+02  0.16940789620E+02  23.187
 399 F   1 H     0.34923559628E+00 -0.14456775031E+02  0.18128222499E+02  23.187
 400 F   8 O    -0.16735796433E+00 -0.12509753244E+02  0.18360674428E+02  22.217
 401 F   8 O    -0.16735796433E+00 -0.15116652011E+02  0.16281742034E+02  22.217
 402 F   8 O     0.33471592866E+00 -0.13852258184E+02  0.17370182350E+02  22.217
 403 F  12 MG    0.16524755684E+00 -0.14455750278E+02  0.15599508002E+02  21.268
 404 F  12 MG    0.16524755684E+00 -0.11991688714E+02  0.17564531527E+02  21.268
 405 F  12 MG   -0.33049511369E+00 -0.13260169180E+02  0.16627726222E+02  21.268
 406 F   8 O     0.00000000000E+00 -0.12542946434E+02  0.15728357346E+02  20.117
 407 F   8 O     0.11693595654E-14 -0.14728321838E+02  0.13665885557E+02  20.092
 408 F   8 O     0.10023081989E-14 -0.10045893343E+02  0.17399997677E+02  20.092
 409 F   1 H     0.00000000000E+00 -0.11939200508E+02  0.14971283900E+02  19.149
 410 F  14 SI    0.11693595654E-14 -0.13553462042E+02  0.12575774973E+02  18.489
 411 F  14 SI    0.10023081989E-14 -0.92445450062E+01  0.16012021644E+02  18.489
 412 F   8 O    -0.24139529322E+00 -0.95558162628E+01  0.15078419464E+02  17.851
 413 F   8 O    -0.24139529322E+00 -0.12574002848E+02  0.12671495980E+02  17.851
 414 F   8 O     0.48279058643E+00 -0.11130163684E+02  0.13956783811E+02  17.851
 415 F   1 H     0.32538220186E+00 -0.22132209959E+02  0.69134707324E+01  23.187
 416 F   1 H     0.32538220186E+00 -0.22940074683E+02  0.33739841130E+01  23.187
 417 F   1 H    -0.15076440372E+00 -0.22605523708E+02  0.51595632714E+01  23.187
 418 F   8 O     0.33264203567E+00 -0.21228212186E+02  0.65552497361E+01  22.217
 419 F   8 O     0.33264203567E+00 -0.21970174567E+02  0.33045001443E+01  22.217
 420 F   8 O    -0.16528407134E+00 -0.21660263104E+02  0.49438137070E+01  22.217
 421 F  12 MG   -0.33475244316E+00 -0.21028094823E+02  0.31831735902E+01  21.268
 422 F  12 MG   -0.33475244316E+00 -0.20326786047E+02  0.62558081024E+01  21.268
 423 F  12 MG    0.16950488631E+00 -0.20734435455E+02  0.47324995878E+01  21.268
 424 F   8 O     0.50000000000E+00 -0.19612940810E+02  0.44765257535E+01  20.117
 425 F   8 O     0.50000000000E+00 -0.20035605975E+02  0.15014610994E+01  20.092
 426 F   8 O     0.50000000000E+00 -0.18702916789E+02  0.73403539292E+01  20.092
 427 F   1 H     0.50000000000E+00 -0.18668885665E+02  0.42610513272E+01  19.149
 428 F  14 SI    0.50000000000E+00 -0.18437390767E+02  0.13816914270E+01  18.489
 429 F  14 SI    0.50000000000E+00 -0.17211008529E+02  0.67548230847E+01  18.489
 430 F   8 O     0.25860470678E+00 -0.16872278759E+02  0.58308290547E+01  17.851
 431 F   8 O     0.25860470678E+00 -0.17731299805E+02  0.20672119430E+01  17.851
 432 F   8 O    -0.17209413565E-01 -0.17403824746E+02  0.39723094278E+01  17.851
 433 F   1 H    -0.17461779814E+00 -0.21614137020E+02 -0.83940381305E+01  23.187
 434 F   1 H    -0.17461779814E+00 -0.20038917283E+02 -0.11665015618E+02  23.187
 435 F   1 H     0.34923559628E+00 -0.20890645194E+02 -0.10060404496E+02  23.187
 436 F   8 O    -0.16735796433E+00 -0.20684015962E+02 -0.81104731903E+01  22.217
 437 F   8 O    -0.16735796433E+00 -0.19237296292E+02 -0.11114617541E+02  22.217
 438 F   8 O     0.33471592866E+00 -0.20017093042E+02 -0.96397239512E+01  22.217
 439 F  12 MG    0.16524755684E+00 -0.18425102820E+02 -0.10622097348E+02  21.268
 440 F  12 MG    0.16524755684E+00 -0.19792553823E+02 -0.77825560818E+01  21.268
 441 F  12 MG   -0.33049511369E+00 -0.19161499640E+02 -0.92276918851E+01  21.268
 442 F   8 O     0.00000000000E+00 -0.18125082744E+02 -0.87285798133E+01  20.117
 443 F   8 O    -0.11102230246E-15 -0.16600613205E+02 -0.11318106442E+02  20.092
 444 F   8 O    -0.33306690739E-15 -0.19199164977E+02 -0.59221580888E+01  20.092
 445 F   1 H     0.00000000000E+00 -0.17252644603E+02 -0.83084357483E+01  19.149
 446 F  14 SI   -0.11102230246E-15 -0.15276403070E+02 -0.10415275259E+02  18.489
 447 F  14 SI   -0.33306690739E-15 -0.17667671620E+02 -0.54497549513E+01  18.489
 448 F   8 O    -0.24139529322E+00 -0.16826741167E+02 -0.59609680165E+01  17.851
 449 F   8 O    -0.24139529322E+00 -0.15151773977E+02 -0.94390732240E+01  17.851
 450 F   8 O     0.48279058643E+00 -0.16083552520E+02 -0.77454306739E+01  17.851
 451 F   1 H     0.32538220186E+00 -0.11665015618E+02 -0.20038917283E+02  23.187
 452 F   1 H     0.32538220186E+00 -0.83940381305E+01 -0.21614137020E+02  23.187
 453 F   1 H    -0.15076440372E+00 -0.10060404496E+02 -0.20890645194E+02  23.187
 454 F   8 O     0.33264203567E+00 -0.11114617541E+02 -0.19237296292E+02  22.217
 455 F   8 O     0.33264203567E+00 -0.81104731903E+01 -0.20684015962E+02  22.217
 456 F   8 O    -0.16528407134E+00 -0.96397239512E+01 -0.20017093042E+02  22.217
 457 F  12 MG   -0.33475244316E+00 -0.77825560818E+01 -0.19792553823E+02  21.268
 458 F  12 MG   -0.33475244316E+00 -0.10622097348E+02 -0.18425102820E+02  21.268
 459 F  12 MG    0.16950488631E+00 -0.92276918851E+01 -0.19161499640E+02  21.268
 460 F   8 O     0.50000000000E+00 -0.87285798133E+01 -0.18125082744E+02  20.117
 461 F   8 O     0.50000000000E+00 -0.59221580888E+01 -0.19199164977E+02  20.092
 462 F   8 O     0.50000000000E+00 -0.11318106442E+02 -0.16600613205E+02  20.092
 463 F   1 H     0.50000000000E+00 -0.83084357483E+01 -0.17252644603E+02  19.149
 464 F  14 SI    0.50000000000E+00 -0.54497549513E+01 -0.17667671620E+02  18.489
 465 F  14 SI    0.50000000000E+00 -0.10415275259E+02 -0.15276403070E+02  18.489
 466 F   8 O     0.25860470678E+00 -0.94390732240E+01 -0.15151773977E+02  17.851
 467 F   8 O     0.25860470678E+00 -0.59609680165E+01 -0.16826741167E+02  17.851
 468 F   8 O    -0.17209413565E-01 -0.77454306739E+01 -0.16083552520E+02  17.851
 469 F   1 H    -0.17461779814E+00  0.33739841130E+01 -0.22940074683E+02  23.187
 470 F   1 H    -0.17461779814E+00  0.69134707324E+01 -0.22132209959E+02  23.187
 471 F   1 H     0.34923559628E+00  0.51595632714E+01 -0.22605523708E+02  23.187
 472 F   8 O    -0.16735796433E+00  0.33045001443E+01 -0.21970174567E+02  22.217
 473 F   8 O    -0.16735796433E+00  0.65552497361E+01 -0.21228212186E+02  22.217
 474 F   8 O     0.33471592866E+00  0.49438137070E+01 -0.21660263104E+02  22.217
 475 F  12 MG    0.16524755684E+00  0.62558081024E+01 -0.20326786047E+02  21.268
 476 F  12 MG    0.16524755684E+00  0.31831735902E+01 -0.21028094823E+02  21.268
 477 F  12 MG   -0.33049511369E+00  0.47324995878E+01 -0.20734435455E+02  21.268
 478 F   8 O     0.00000000000E+00  0.44765257535E+01 -0.19612940810E+02  20.117
 479 F   8 O     0.11693595654E-14  0.73403539292E+01 -0.18702916789E+02  20.092
 480 F   8 O     0.10023081989E-14  0.15014610994E+01 -0.20035605975E+02  20.092
 481 F   1 H     0.00000000000E+00  0.42610513272E+01 -0.18668885665E+02  19.149
 482 F  14 SI    0.11693595654E-14  0.67548230847E+01 -0.17211008529E+02  18.489
 483 F  14 SI    0.10023081989E-14  0.13816914270E+01 -0.18437390767E+02  18.489
 484 F   8 O    -0.24139529322E+00  0.20672119430E+01 -0.17731299805E+02  17.851
 485 F   8 O    -0.24139529322E+00  0.58308290547E+01 -0.16872278759E+02  17.851
 486 F   8 O     0.48279058643E+00  0.39723094278E+01 -0.17403824746E+02  17.851
 487 F   1 H     0.32538220186E+00  0.16940789620E+02 -0.15831627911E+02  23.187
 488 F   1 H     0.32538220186E+00  0.19204376274E+02 -0.12993180026E+02  23.187
 489 F   1 H    -0.15076440372E+00  0.18128222499E+02 -0.14456775031E+02  23.187
 490 F   8 O     0.33264203567E+00  0.16281742034E+02 -0.15116652011E+02  22.217
 491 F   8 O     0.33264203567E+00  0.18360674428E+02 -0.12509753244E+02  22.217
 492 F   8 O    -0.16528407134E+00  0.17370182350E+02 -0.13852258184E+02  22.217
 493 F  12 MG   -0.33475244316E+00  0.17564531527E+02 -0.11991688714E+02  21.268
 494 F  12 MG   -0.33475244316E+00  0.15599508002E+02 -0.14455750278E+02  21.268
 495 F  12 MG    0.16950488631E+00  0.16627726222E+02 -0.13260169180E+02  21.268
 496 F   8 O     0.50000000000E+00  0.15728357346E+02 -0.12542946434E+02  20.117
 497 F   8 O     0.50000000000E+00  0.17399997677E+02 -0.10045893343E+02  20.092
 498 F   8 O     0.50000000000E+00  0.13665885557E+02 -0.14728321838E+02  20.092
 499 F   1 H     0.50000000000E+00  0.14971283900E+02 -0.11939200508E+02  19.149
 500 F  14 SI    0.50000000000E+00  0.16012021644E+02 -0.92445450062E+01  18.489
 501 F  14 SI    0.50000000000E+00  0.12575774973E+02 -0.13553462042E+02  18.489
 502 F   8 O     0.25860470678E+00  0.12671495980E+02 -0.12574002848E+02  17.851
 503 F   8 O     0.25860470678E+00  0.15078419464E+02 -0.95558162628E+01  17.851
 504 F   8 O    -0.17209413565E-01  0.13956783811E+02 -0.11130163684E+02  17.851

 T = ATOM BELONGING TO THE ASYMMETRIC UNIT

 ****  28 SYMMOPS - TRANSLATORS IN FRACTIONARY UNITS
  V INV                   ROTATION MATRICES                       TRANSLATOR
  1  1  1.00  0.00  0.00  0.00  1.00  0.00  0.00  0.00  1.00    0.00  0.00  0.00
  2 28  1.00  0.00  0.00  0.00  0.78 -0.62  0.00  0.62  0.78    0.50  0.00  0.00
  3 27  1.00  0.00  0.00  0.00  0.22 -0.97  0.00  0.97  0.22    1.00  0.00  0.00
  4 26  1.00  0.00  0.00  0.00 -0.43 -0.90  0.00  0.90 -0.43    1.50  0.00  0.00
  5 25  1.00  0.00  0.00  0.00 -0.90 -0.43  0.00  0.43 -0.90    2.00  0.00  0.00
  6 24  1.00  0.00  0.00  0.00 -0.97  0.22  0.00 -0.22 -0.97    2.50  0.00  0.00
  7 23  1.00  0.00  0.00  0.00 -0.62  0.78  0.00 -0.78 -0.62    3.00  0.00  0.00
  8 22  1.00  0.00  0.00  0.00  0.00  1.00  0.00 -1.00  0.00    3.50  0.00  0.00
  9 21  1.00  0.00  0.00  0.00  0.62  0.78  0.00 -0.78  0.62    4.00  0.00  0.00
 10 20  1.00  0.00  0.00  0.00  0.97  0.22  0.00 -0.22  0.97    4.50  0.00  0.00
 11 19  1.00  0.00  0.00  0.00  0.90 -0.43  0.00  0.43  0.90    5.00  0.00  0.00
 12 18  1.00  0.00  0.00  0.00  0.43 -0.90  0.00  0.90  0.43    5.50  0.00  0.00
 13 17  1.00  0.00  0.00  0.00 -0.22 -0.97  0.00  0.97 -0.22    6.00  0.00  0.00
 14 16  1.00  0.00  0.00  0.00 -0.78 -0.62  0.00  0.62 -0.78    6.50  0.00  0.00
 15 15  1.00  0.00  0.00  0.00 -1.00  0.00  0.00  0.00 -1.00    7.00  0.00  0.00
 16 14  1.00  0.00  0.00  0.00 -0.78  0.62  0.00 -0.62 -0.78    7.50  0.00  0.00
 17 13  1.00  0.00  0.00  0.00 -0.22  0.97  0.00 -0.97 -0.22    8.00  0.00  0.00
 18 12  1.00  0.00  0.00  0.00  0.43  0.90  0.00 -0.90  0.43    8.50  0.00  0.00
 19 11  1.00  0.00  0.00  0.00  0.90  0.43  0.00 -0.43  0.90    9.00  0.00  0.00
 20 10  1.00  0.00  0.00  0.00  0.97 -0.22  0.00  0.22  0.97    9.50  0.00  0.00
 21  9  1.00  0.00  0.00  0.00  0.62 -0.78  0.00  0.78  0.62   10.00  0.00  0.00
 22  8  1.00  0.00  0.00  0.00  0.00 -1.00  0.00  1.00  0.00   10.50  0.00  0.00
 23  7  1.00  0.00  0.00  0.00 -0.62 -0.78  0.00  0.78 -0.62   11.00  0.00  0.00
 24  6  1.00  0.00  0.00  0.00 -0.97 -0.22  0.00  0.22 -0.97   11.50  0.00  0.00
 25  5  1.00  0.00  0.00  0.00 -0.90  0.43  0.00 -0.43 -0.90   12.00  0.00  0.00
 26  4  1.00  0.00  0.00  0.00 -0.43  0.90  0.00 -0.90 -0.43   12.50  0.00  0.00
 27  3  1.00  0.00  0.00  0.00  0.22  0.97  0.00 -0.97  0.22   13.00  0.00  0.00
 28  2  1.00  0.00  0.00  0.00  0.78  0.62  0.00 -0.62  0.78   13.50  0.00  0.00

 DIRECT LATTICE VECTORS CARTESIAN COMPONENTS (ANGSTROM)
          X                    Y                    Z
   0.531679829000E+01   0.000000000000E+00   0.000000000000E+00
   0.000000000000E+00   0.500000000000E+03   0.000000000000E+00
   0.000000000000E+00   0.000000000000E+00   0.500000000000E+03


 CARTESIAN COORDINATES - PRIMITIVE CELL
 *******************************************************************************
 *      ATOM          X(ANGSTROM)         Y(ANGSTROM)         Z(ANGSTROM)
 *******************************************************************************
   1     1 H     4.388390679439E+00  2.311570121182E+01 -1.815255556434E+00
   2     1 H     4.388390679439E+00  2.311570121182E+01  1.815255556434E+00
   3     1 H     1.856815221123E+00  2.318686687005E+01  0.000000000000E+00
   4     8 O     4.426989751442E+00  2.215465687896E+01 -1.667174337271E+00
   5     8 O     4.426989751442E+00  2.215465687896E+01  1.667174337271E+00
   6     8 O     1.779617077116E+00  2.221729712849E+01  0.000000000000E+00
   7    12 MG    8.785879276487E-01  2.120919934329E+01  1.575826516913E+00
   8    12 MG    8.785879276487E-01  2.120919934329E+01 -1.575826516913E+00
   9    12 MG    3.559622434703E+00  2.126766009684E+01 -1.142462842493E-16
  10     8 O     0.000000000000E+00  2.011732412704E+01  0.000000000000E+00
  11     8 O     5.316798290000E+00  1.986737802894E+01  2.994525419193E+00
  12     8 O     5.316798290000E+00  1.986737802894E+01 -2.994525419193E+00
  13     1 H     0.000000000000E+00  1.914899084535E+01  0.000000000000E+00
  14    14 SI    5.316798290000E+00  1.828258215313E+01  2.755655874986E+00
  15    14 SI    5.316798290000E+00  1.828258215313E+01 -2.755655874986E+00
  16     8 O     4.033348207808E+00  1.774673703126E+01 -1.930202769170E+00
  17     8 O     4.033348207808E+00  1.774673703126E+01  1.930202769170E+00
  18     8 O     2.566900164385E+00  1.785139652764E+01  0.000000000000E+00
  19     1 H     1.729991534439E+00  1.920437627393E+01  1.299318002564E+01
  20     1 H     1.729991534439E+00  1.694078961952E+01  1.583162791113E+01
  21     1 H     4.515214366123E+00  1.812822249880E+01  1.445677503053E+01
  22     8 O     1.768590606442E+00  1.836067442846E+01  1.250975324407E+01
  23     8 O     1.768590606442E+00  1.628174203404E+01  1.511665201135E+01
  24     8 O     4.438016222116E+00  1.737018235040E+01  1.385225818448E+01
  25    12 MG    3.536987072649E+00  1.559950800173E+01  1.445575027796E+01
  26    12 MG    3.536987072649E+00  1.756453152732E+01  1.199168871430E+01
  27    12 MG    9.012232897025E-01  1.662772622214E+01  1.326016917978E+01
  28     8 O     2.658399145000E+00  1.572835734553E+01  1.254294643390E+01
  29     8 O     2.658399145000E+00  1.366588555685E+01  1.472832183849E+01
  30     8 O     2.658399145000E+00  1.739999767739E+01  1.004589334294E+01
  31     1 H     2.658399145000E+00  1.497128390039E+01  1.193920050796E+01
  32    14 SI    2.658399145000E+00  1.257577497264E+01  1.355346204203E+01
  33    14 SI    2.658399145000E+00  1.601202164361E+01  9.244545006210E+00
  34     8 O     1.374949062808E+00  1.507841946422E+01  9.555816262776E+00
  35     8 O     1.374949062808E+00  1.267149598002E+01  1.257400284774E+01
  36     8 O     5.225299309385E+00  1.395678381133E+01  1.113016368392E+01
  37     1 H     4.388390679439E+00  6.913470732421E+00  2.213220995927E+01
  38     1 H     4.388390679439E+00  3.373984112999E+00  2.294007468285E+01
  39     1 H     1.856815221123E+00  5.159563271444E+00  2.260552370766E+01
  40     8 O     4.426989751442E+00  6.555249736067E+00  2.122821218551E+01
  41     8 O     4.426989751442E+00  3.304500144310E+00  2.197017456671E+01
  42     8 O     1.779617077116E+00  4.943813707016E+00  2.166026310380E+01
  43    12 MG    8.785879276487E-01  3.183173590240E+00  2.102809482310E+01
  44    12 MG    8.785879276487E-01  6.255808102430E+00  2.032678604651E+01
  45    12 MG    3.559622434703E+00  4.732499587815E+00  2.073443545521E+01
  46     8 O     0.000000000000E+00  4.476525753451E+00  1.961294080986E+01
  47     8 O     0.000000000000E+00  1.501461099355E+00  2.003560597532E+01
  48     8 O     5.316798290000E+00  7.340353929173E+00  1.870291678925E+01
  49     1 H     0.000000000000E+00  4.261051327228E+00  1.866888566525E+01
  50    14 SI    0.000000000000E+00  1.381691426956E+00  1.843739076681E+01
  51    14 SI    5.316798290000E+00  6.754823084740E+00  1.721100852888E+01
  52     8 O     4.033348207808E+00  5.830829054708E+00  1.687227875901E+01
  53     8 O     4.033348207808E+00  2.067211943039E+00  1.773129980485E+01
  54     8 O     2.566900164385E+00  3.972309427754E+00  1.740382474622E+01
  55     1 H     1.729991534439E+00 -8.394038130476E+00  2.161413701987E+01
  56     1 H     1.729991534439E+00 -1.166501561774E+01  2.003891728331E+01
  57     1 H     4.515214366123E+00 -1.006040449600E+01  2.089064519411E+01
  58     8 O     1.768590606442E+00 -8.110473190264E+00  2.068401596222E+01
  59     8 O     1.768590606442E+00 -1.111461754076E+01  1.923729629179E+01
  60     8 O     4.438016222116E+00 -9.639723951193E+00  2.001709304170E+01
  61    12 MG    3.536987072649E+00 -1.062209734771E+01  1.842510282008E+01
  62    12 MG    3.536987072649E+00 -7.782556081804E+00  1.979255382280E+01
  63    12 MG    9.012232897025E-01 -9.227691885100E+00  1.916149964039E+01
  64     8 O     2.658399145000E+00 -8.728579813281E+00  1.812508274397E+01
  65     8 O     2.658399145000E+00 -1.131810644249E+01  1.660061320516E+01
  66     8 O     2.658399145000E+00 -5.922158088825E+00  1.919916497669E+01
  67     1 H     2.658399145000E+00 -8.308435748309E+00  1.725264460341E+01
  68    14 SI    2.658399145000E+00 -1.041527525934E+01  1.527640307008E+01
  69    14 SI    2.658399145000E+00 -5.449754951310E+00  1.766767161960E+01
  70     8 O     1.374949062808E+00 -5.960968016498E+00  1.682674116676E+01
  71     8 O     1.374949062808E+00 -9.439073224022E+00  1.515177397728E+01
  72     8 O     5.225299309385E+00 -7.745430673881E+00  1.608355251998E+01
  73     1 H     4.388390679439E+00 -2.003891728331E+01  1.166501561774E+01
  74     1 H     4.388390679439E+00 -2.161413701987E+01  8.394038130476E+00
  75     1 H     1.856815221123E+00 -2.089064519411E+01  1.006040449600E+01
  76     8 O     4.426989751442E+00 -1.923729629179E+01  1.111461754076E+01
  77     8 O     4.426989751442E+00 -2.068401596222E+01  8.110473190264E+00
  78     8 O     1.779617077116E+00 -2.001709304170E+01  9.639723951193E+00
  79    12 MG    8.785879276487E-01 -1.979255382280E+01  7.782556081804E+00
  80    12 MG    8.785879276487E-01 -1.842510282008E+01  1.062209734771E+01
  81    12 MG    3.559622434703E+00 -1.916149964039E+01  9.227691885100E+00
  82     8 O     0.000000000000E+00 -1.812508274397E+01  8.728579813281E+00
  83     8 O     8.881784197001E-16 -1.919916497669E+01  5.922158088825E+00
  84     8 O     0.000000000000E+00 -1.660061320516E+01  1.131810644249E+01
  85     1 H     0.000000000000E+00 -1.725264460341E+01  8.308435748309E+00
  86    14 SI    8.881784197001E-16 -1.766767161960E+01  5.449754951310E+00
  87    14 SI    0.000000000000E+00 -1.527640307008E+01  1.041527525934E+01
  88     8 O     4.033348207808E+00 -1.515177397728E+01  9.439073224022E+00
  89     8 O     4.033348207808E+00 -1.682674116676E+01  5.960968016498E+00
  90     8 O     2.566900164385E+00 -1.608355251998E+01  7.745430673881E+00
  91     1 H     1.729991534439E+00 -2.294007468285E+01 -3.373984112999E+00
  92     1 H     1.729991534439E+00 -2.213220995927E+01 -6.913470732421E+00
  93     1 H     4.515214366123E+00 -2.260552370766E+01 -5.159563271444E+00
  94     8 O     1.768590606442E+00 -2.197017456671E+01 -3.304500144310E+00
  95     8 O     1.768590606442E+00 -2.122821218551E+01 -6.555249736067E+00
  96     8 O     4.438016222116E+00 -2.166026310380E+01 -4.943813707016E+00
  97    12 MG    3.536987072649E+00 -2.032678604651E+01 -6.255808102430E+00
  98    12 MG    3.536987072649E+00 -2.102809482310E+01 -3.183173590240E+00
  99    12 MG    9.012232897025E-01 -2.073443545521E+01 -4.732499587815E+00
 100     8 O     2.658399145000E+00 -1.961294080986E+01 -4.476525753451E+00
 101     8 O     2.658399145000E+00 -1.870291678925E+01 -7.340353929173E+00
 102     8 O     2.658399145000E+00 -2.003560597532E+01 -1.501461099355E+00
 103     1 H     2.658399145000E+00 -1.866888566525E+01 -4.261051327228E+00
 104    14 SI    2.658399145000E+00 -1.721100852888E+01 -6.754823084740E+00
 105    14 SI    2.658399145000E+00 -1.843739076681E+01 -1.381691426956E+00
 106     8 O     1.374949062808E+00 -1.773129980485E+01 -2.067211943039E+00
 107     8 O     1.374949062808E+00 -1.687227875901E+01 -5.830829054708E+00
 108     8 O     5.225299309385E+00 -1.740382474622E+01 -3.972309427754E+00
 109     1 H     4.388390679439E+00 -1.583162791113E+01 -1.694078961952E+01
 110     1 H     4.388390679439E+00 -1.299318002564E+01 -1.920437627393E+01
 111     1 H     1.856815221123E+00 -1.445677503053E+01 -1.812822249880E+01
 112     8 O     4.426989751442E+00 -1.511665201135E+01 -1.628174203404E+01
 113     8 O     4.426989751442E+00 -1.250975324407E+01 -1.836067442846E+01
 114     8 O     1.779617077116E+00 -1.385225818448E+01 -1.737018235040E+01
 115    12 MG    8.785879276487E-01 -1.199168871430E+01 -1.756453152732E+01
 116    12 MG    8.785879276487E-01 -1.445575027796E+01 -1.559950800173E+01
 117    12 MG    3.559622434703E+00 -1.326016917978E+01 -1.662772622214E+01
 118     8 O     0.000000000000E+00 -1.254294643390E+01 -1.572835734553E+01
 119     8 O    -8.881784197001E-16 -1.004589334294E+01 -1.739999767739E+01
 120     8 O     5.316798290000E+00 -1.472832183849E+01 -1.366588555685E+01
 121     1 H     0.000000000000E+00 -1.193920050796E+01 -1.497128390039E+01
 122    14 SI   -8.881784197001E-16 -9.244545006210E+00 -1.601202164361E+01
 123    14 SI    5.316798290000E+00 -1.355346204203E+01 -1.257577497264E+01
 124     8 O     4.033348207808E+00 -1.257400284774E+01 -1.267149598002E+01
 125     8 O     4.033348207808E+00 -9.555816262776E+00 -1.507841946422E+01
 126     8 O     2.566900164385E+00 -1.113016368392E+01 -1.395678381133E+01
 127     1 H     1.729991534439E+00 -1.815255556434E+00 -2.311570121182E+01
 128     1 H     1.729991534439E+00  1.815255556434E+00 -2.311570121182E+01
 129     1 H     4.515214366123E+00 -4.259358344200E-15 -2.318686687005E+01
 130     8 O     1.768590606442E+00 -1.667174337271E+00 -2.215465687896E+01
 131     8 O     1.768590606442E+00  1.667174337271E+00 -2.215465687896E+01
 132     8 O     4.438016222116E+00 -4.081251272116E-15 -2.221729712849E+01
 133    12 MG    3.536987072649E+00  1.575826516913E+00 -2.120919934329E+01
 134    12 MG    3.536987072649E+00 -1.575826516913E+00 -2.120919934329E+01
 135    12 MG    9.012232897025E-01 -4.021052063692E-15 -2.126766009684E+01
 136     8 O     2.658399145000E+00 -3.695492489939E-15 -2.011732412704E+01
 137     8 O     2.658399145000E+00  2.994525419193E+00 -1.986737802894E+01
 138     8 O     2.658399145000E+00 -2.994525419193E+00 -1.986737802894E+01
 139     1 H     2.658399145000E+00 -3.517612551849E-15 -1.914899084535E+01
 140    14 SI    2.658399145000E+00  2.755655874986E+00 -1.828258215313E+01
 141    14 SI    2.658399145000E+00 -2.755655874986E+00 -1.828258215313E+01
 142     8 O     1.374949062808E+00 -1.930202769170E+00 -1.774673703126E+01
 143     8 O     1.374949062808E+00  1.930202769170E+00 -1.774673703126E+01
 144     8 O     5.225299309385E+00 -3.279248342682E-15 -1.785139652764E+01
 145     1 H     4.388390679439E+00  1.299318002564E+01 -1.920437627393E+01
 146     1 H     4.388390679439E+00  1.583162791113E+01 -1.694078961952E+01
 147     1 H     1.856815221123E+00  1.445677503053E+01 -1.812822249880E+01
 148     8 O     4.426989751442E+00  1.250975324407E+01 -1.836067442846E+01
 149     8 O     4.426989751442E+00  1.511665201135E+01 -1.628174203404E+01
 150     8 O     1.779617077116E+00  1.385225818448E+01 -1.737018235040E+01
 151    12 MG    8.785879276487E-01  1.445575027796E+01 -1.559950800173E+01
 152    12 MG    8.785879276487E-01  1.199168871430E+01 -1.756453152732E+01
 153    12 MG    3.559622434703E+00  1.326016917978E+01 -1.662772622214E+01
 154     8 O     0.000000000000E+00  1.254294643390E+01 -1.572835734553E+01
 155     8 O    -8.881784197001E-16  1.472832183849E+01 -1.366588555685E+01
 156     8 O     5.316798290000E+00  1.004589334294E+01 -1.739999767739E+01
 157     1 H     0.000000000000E+00  1.193920050796E+01 -1.497128390039E+01
 158    14 SI   -8.881784197001E-16  1.355346204203E+01 -1.257577497264E+01
 159    14 SI    5.316798290000E+00  9.244545006210E+00 -1.601202164361E+01
 160     8 O     4.033348207808E+00  9.555816262776E+00 -1.507841946422E+01
 161     8 O     4.033348207808E+00  1.257400284774E+01 -1.267149598002E+01
 162     8 O     2.566900164385E+00  1.113016368392E+01 -1.395678381133E+01
 163     1 H     1.729991534439E+00  2.213220995927E+01 -6.913470732421E+00
 164     1 H     1.729991534439E+00  2.294007468285E+01 -3.373984112999E+00
 165     1 H     4.515214366123E+00  2.260552370766E+01 -5.159563271444E+00
 166     8 O     1.768590606442E+00  2.122821218551E+01 -6.555249736067E+00
 167     8 O     1.768590606442E+00  2.197017456671E+01 -3.304500144310E+00
 168     8 O     4.438016222116E+00  2.166026310380E+01 -4.943813707016E+00
 169    12 MG    3.536987072649E+00  2.102809482310E+01 -3.183173590240E+00
 170    12 MG    3.536987072649E+00  2.032678604651E+01 -6.255808102430E+00
 171    12 MG    9.012232897025E-01  2.073443545521E+01 -4.732499587815E+00
 172     8 O     2.658399145000E+00  1.961294080986E+01 -4.476525753451E+00
 173     8 O     2.658399145000E+00  2.003560597532E+01 -1.501461099355E+00
 174     8 O     2.658399145000E+00  1.870291678925E+01 -7.340353929173E+00
 175     1 H     2.658399145000E+00  1.866888566525E+01 -4.261051327228E+00
 176    14 SI    2.658399145000E+00  1.843739076681E+01 -1.381691426956E+00
 177    14 SI    2.658399145000E+00  1.721100852888E+01 -6.754823084740E+00
 178     8 O     1.374949062808E+00  1.687227875901E+01 -5.830829054708E+00
 179     8 O     1.374949062808E+00  1.773129980485E+01 -2.067211943039E+00
 180     8 O     5.225299309385E+00  1.740382474622E+01 -3.972309427754E+00
 181     1 H     4.388390679439E+00  2.161413701987E+01  8.394038130476E+00
 182     1 H     4.388390679439E+00  2.003891728331E+01  1.166501561774E+01
 183     1 H     1.856815221123E+00  2.089064519411E+01  1.006040449600E+01
 184     8 O     4.426989751442E+00  2.068401596222E+01  8.110473190264E+00
 185     8 O     4.426989751442E+00  1.923729629179E+01  1.111461754076E+01
 186     8 O     1.779617077116E+00  2.001709304170E+01  9.639723951193E+00
 187    12 MG    8.785879276487E-01  1.842510282008E+01  1.062209734771E+01
 188    12 MG    8.785879276487E-01  1.979255382280E+01  7.782556081804E+00
 189    12 MG    3.559622434703E+00  1.916149964039E+01  9.227691885100E+00
 190     8 O     0.000000000000E+00  1.812508274397E+01  8.728579813281E+00
 191     8 O     2.664535259100E-15  1.660061320516E+01  1.131810644249E+01
 192     8 O     1.776356839400E-15  1.919916497669E+01  5.922158088825E+00
 193     1 H     0.000000000000E+00  1.725264460341E+01  8.308435748309E+00
 194    14 SI    2.664535259100E-15  1.527640307008E+01  1.041527525934E+01
 195    14 SI    1.776356839400E-15  1.766767161960E+01  5.449754951310E+00
 196     8 O     4.033348207808E+00  1.682674116676E+01  5.960968016498E+00
 197     8 O     4.033348207808E+00  1.515177397728E+01  9.439073224022E+00
 198     8 O     2.566900164385E+00  1.608355251998E+01  7.745430673881E+00
 199     1 H     1.729991534439E+00  1.166501561774E+01  2.003891728331E+01
 200     1 H     1.729991534439E+00  8.394038130476E+00  2.161413701987E+01
 201     1 H     4.515214366123E+00  1.006040449600E+01  2.089064519411E+01
 202     8 O     1.768590606442E+00  1.111461754076E+01  1.923729629179E+01
 203     8 O     1.768590606442E+00  8.110473190264E+00  2.068401596222E+01
 204     8 O     4.438016222116E+00  9.639723951193E+00  2.001709304170E+01
 205    12 MG    3.536987072649E+00  7.782556081804E+00  1.979255382280E+01
 206    12 MG    3.536987072649E+00  1.062209734771E+01  1.842510282008E+01
 207    12 MG    9.012232897025E-01  9.227691885100E+00  1.916149964039E+01
 208     8 O     2.658399145000E+00  8.728579813281E+00  1.812508274397E+01
 209     8 O     2.658399145000E+00  5.922158088825E+00  1.919916497669E+01
 210     8 O     2.658399145000E+00  1.131810644249E+01  1.660061320516E+01
 211     1 H     2.658399145000E+00  8.308435748309E+00  1.725264460341E+01
 212    14 SI    2.658399145000E+00  5.449754951310E+00  1.766767161960E+01
 213    14 SI    2.658399145000E+00  1.041527525934E+01  1.527640307008E+01
 214     8 O     1.374949062808E+00  9.439073224022E+00  1.515177397728E+01
 215     8 O     1.374949062808E+00  5.960968016498E+00  1.682674116676E+01
 216     8 O     5.225299309385E+00  7.745430673881E+00  1.608355251998E+01
 217     1 H     4.388390679439E+00 -3.373984112999E+00  2.294007468285E+01
 218     1 H     4.388390679439E+00 -6.913470732421E+00  2.213220995927E+01
 219     1 H     1.856815221123E+00 -5.159563271444E+00  2.260552370766E+01
 220     8 O     4.426989751442E+00 -3.304500144310E+00  2.197017456671E+01
 221     8 O     4.426989751442E+00 -6.555249736067E+00  2.122821218551E+01
 222     8 O     1.779617077116E+00 -4.943813707016E+00  2.166026310380E+01
 223    12 MG    8.785879276487E-01 -6.255808102430E+00  2.032678604651E+01
 224    12 MG    8.785879276487E-01 -3.183173590240E+00  2.102809482310E+01
 225    12 MG    3.559622434703E+00 -4.732499587815E+00  2.073443545521E+01
 226     8 O     0.000000000000E+00 -4.476525753451E+00  1.961294080986E+01
 227     8 O    -8.881784197001E-16 -7.340353929173E+00  1.870291678925E+01
 228     8 O    -1.776356839400E-15 -1.501461099355E+00  2.003560597532E+01
 229     1 H     0.000000000000E+00 -4.261051327228E+00  1.866888566525E+01
 230    14 SI   -8.881784197001E-16 -6.754823084740E+00  1.721100852888E+01
 231    14 SI   -1.776356839400E-15 -1.381691426956E+00  1.843739076681E+01
 232     8 O     4.033348207808E+00 -2.067211943039E+00  1.773129980485E+01
 233     8 O     4.033348207808E+00 -5.830829054708E+00  1.687227875901E+01
 234     8 O     2.566900164385E+00 -3.972309427754E+00  1.740382474622E+01
 235     1 H     1.729991534439E+00 -1.694078961952E+01  1.583162791113E+01
 236     1 H     1.729991534439E+00 -1.920437627393E+01  1.299318002564E+01
[...]
 246     8 O     2.658399145000E+00 -1.366588555685E+01  1.472832183849E+01
 247     1 H     2.658399145000E+00 -1.497128390039E+01  1.193920050796E+01
 248    14 SI    2.658399145000E+00 -1.601202164361E+01  9.244545006210E+00
 249    14 SI    2.658399145000E+00 -1.257577497264E+01  1.355346204203E+01
 250     8 O     1.374949062808E+00 -1.267149598002E+01  1.257400284774E+01
 251     8 O     1.374949062808E+00 -1.507841946422E+01  9.555816262776E+00
 252     8 O     5.225299309385E+00 -1.395678381133E+01  1.113016368392E+01
 253     1 H     4.388390679439E+00 -2.311570121182E+01  1.815255556434E+00
 254     1 H     4.388390679439E+00 -2.311570121182E+01 -1.815255556434E+00
 255     1 H     1.856815221123E+00 -2.318686687005E+01  8.518716688399E-15
 256     8 O     4.426989751442E+00 -2.215465687896E+01  1.667174337271E+00
 257     8 O     4.426989751442E+00 -2.215465687896E+01 -1.667174337271E+00
 258     8 O     1.779617077116E+00 -2.221729712849E+01  8.162502544232E-15
 259    12 MG    8.785879276487E-01 -2.120919934329E+01 -1.575826516913E+00
 260    12 MG    8.785879276487E-01 -2.120919934329E+01  1.575826516913E+00
 261    12 MG    3.559622434703E+00 -2.126766009684E+01  7.927857843136E-15
 262     8 O     0.000000000000E+00 -2.011732412704E+01  7.390984979877E-15
 263     8 O    -8.881784197001E-16 -1.986737802894E+01 -2.994525419193E+00
 264     8 O    -1.776356839400E-15 -1.986737802894E+01  2.994525419193E+00
 265     1 H     0.000000000000E+00 -1.914899084535E+01  7.035225103698E-15
 266    14 SI   -8.881784197001E-16 -1.828258215313E+01 -2.755655874986E+00
 267    14 SI   -1.776356839400E-15 -1.828258215313E+01  2.755655874986E+00
 268     8 O     4.033348207808E+00 -1.774673703126E+01  1.930202769170E+00
 269     8 O     4.033348207808E+00 -1.774673703126E+01 -1.930202769170E+00
 270     8 O     2.566900164385E+00 -1.785139652764E+01  6.558496685364E-15
 271     1 H     1.729991534439E+00 -1.920437627393E+01 -1.299318002564E+01
 272     1 H     1.729991534439E+00 -1.694078961952E+01 -1.583162791113E+01
 273     1 H     4.515214366123E+00 -1.812822249880E+01 -1.445677503053E+01
 274     8 O     1.768590606442E+00 -1.836067442846E+01 -1.250975324407E+01
 275     8 O     1.768590606442E+00 -1.628174203404E+01 -1.511665201135E+01
 276     8 O     4.438016222116E+00 -1.737018235040E+01 -1.385225818448E+01
 277    12 MG    3.536987072649E+00 -1.559950800173E+01 -1.445575027796E+01
 278    12 MG    3.536987072649E+00 -1.756453152732E+01 -1.199168871430E+01
 279    12 MG    9.012232897025E-01 -1.662772622214E+01 -1.326016917978E+01
 280     8 O     2.658399145000E+00 -1.572835734553E+01 -1.254294643390E+01
 281     8 O     2.658399145000E+00 -1.366588555685E+01 -1.472832183849E+01
 282     8 O     2.658399145000E+00 -1.739999767739E+01 -1.004589334294E+01
 283     1 H     2.658399145000E+00 -1.497128390039E+01 -1.193920050796E+01
 284    14 SI    2.658399145000E+00 -1.257577497264E+01 -1.355346204203E+01
 285    14 SI    2.658399145000E+00 -1.601202164361E+01 -9.244545006210E+00
 286     8 O     1.374949062808E+00 -1.507841946422E+01 -9.555816262776E+00
 287     8 O     1.374949062808E+00 -1.267149598002E+01 -1.257400284774E+01
 288     8 O     5.225299309385E+00 -1.395678381133E+01 -1.113016368392E+01
 289     1 H     4.388390679439E+00 -6.913470732421E+00 -2.213220995927E+01
 290     1 H     4.388390679439E+00 -3.373984112999E+00 -2.294007468285E+01
 291     1 H     1.856815221123E+00 -5.159563271444E+00 -2.260552370766E+01
 292     8 O     4.426989751442E+00 -6.555249736067E+00 -2.122821218551E+01
 293     8 O     4.426989751442E+00 -3.304500144310E+00 -2.197017456671E+01
 294     8 O     1.779617077116E+00 -4.943813707016E+00 -2.166026310380E+01
 295    12 MG    8.785879276487E-01 -3.183173590240E+00 -2.102809482310E+01
 296    12 MG    8.785879276487E-01 -6.255808102430E+00 -2.032678604651E+01
 297    12 MG    3.559622434703E+00 -4.732499587815E+00 -2.073443545521E+01
 298     8 O     0.000000000000E+00 -4.476525753451E+00 -1.961294080986E+01
 299     8 O    -8.881784197001E-16 -1.501461099355E+00 -2.003560597532E+01
 300     8 O    -1.776356839400E-15 -7.340353929173E+00 -1.870291678925E+01
 301     1 H     0.000000000000E+00 -4.261051327228E+00 -1.866888566525E+01
 302    14 SI   -8.881784197001E-16 -1.381691426956E+00 -1.843739076681E+01
 303    14 SI   -1.776356839400E-15 -6.754823084740E+00 -1.721100852888E+01
 304     8 O     4.033348207808E+00 -5.830829054708E+00 -1.687227875901E+01
 305     8 O     4.033348207808E+00 -2.067211943039E+00 -1.773129980485E+01
 306     8 O     2.566900164385E+00 -3.972309427754E+00 -1.740382474622E+01
 307     1 H     1.729991534439E+00  8.394038130476E+00 -2.161413701987E+01
 308     1 H     1.729991534439E+00  1.166501561774E+01 -2.003891728331E+01
 309     1 H     4.515214366123E+00  1.006040449600E+01 -2.089064519411E+01
 310     8 O     1.768590606442E+00  8.110473190264E+00 -2.068401596222E+01
 311     8 O     1.768590606442E+00  1.111461754076E+01 -1.923729629179E+01
 312     8 O     4.438016222116E+00  9.639723951193E+00 -2.001709304170E+01
 313    12 MG    3.536987072649E+00  1.062209734771E+01 -1.842510282008E+01
 314    12 MG    3.536987072649E+00  7.782556081804E+00 -1.979255382280E+01
 315    12 MG    9.012232897025E-01  9.227691885100E+00 -1.916149964039E+01
 316     8 O     2.658399145000E+00  8.728579813281E+00 -1.812508274397E+01
 317     8 O     2.658399145000E+00  1.131810644249E+01 -1.660061320516E+01
 318     8 O     2.658399145000E+00  5.922158088825E+00 -1.919916497669E+01
 319     1 H     2.658399145000E+00  8.308435748309E+00 -1.725264460341E+01
 320    14 SI    2.658399145000E+00  1.041527525934E+01 -1.527640307008E+01
 321    14 SI    2.658399145000E+00  5.449754951310E+00 -1.766767161960E+01
 322     8 O     1.374949062808E+00  5.960968016498E+00 -1.682674116676E+01
 323     8 O     1.374949062808E+00  9.439073224022E+00 -1.515177397728E+01
 324     8 O     5.225299309385E+00  7.745430673881E+00 -1.608355251998E+01
 325     1 H     4.388390679439E+00  2.003891728331E+01 -1.166501561774E+01
 326     1 H     4.388390679439E+00  2.161413701987E+01 -8.394038130476E+00
 327     1 H     1.856815221123E+00  2.089064519411E+01 -1.006040449600E+01
 328     8 O     4.426989751442E+00  1.923729629179E+01 -1.111461754076E+01
 329     8 O     4.426989751442E+00  2.068401596222E+01 -8.110473190264E+00
 330     8 O     1.779617077116E+00  2.001709304170E+01 -9.639723951193E+00
 331    12 MG    8.785879276487E-01  1.979255382280E+01 -7.782556081804E+00
 332    12 MG    8.785879276487E-01  1.842510282008E+01 -1.062209734771E+01
 333    12 MG    3.559622434703E+00  1.916149964039E+01 -9.227691885100E+00
 334     8 O     0.000000000000E+00  1.812508274397E+01 -8.728579813281E+00
 335     8 O    -8.881784197001E-16  1.919916497669E+01 -5.922158088825E+00
 336     8 O    -1.776356839400E-15  1.660061320516E+01 -1.131810644249E+01
 337     1 H     0.000000000000E+00  1.725264460341E+01 -8.308435748309E+00
 338    14 SI   -8.881784197001E-16  1.766767161960E+01 -5.449754951310E+00
 339    14 SI   -1.776356839400E-15  1.527640307008E+01 -1.041527525934E+01
 340     8 O     4.033348207808E+00  1.515177397728E+01 -9.439073224022E+00
 341     8 O     4.033348207808E+00  1.682674116676E+01 -5.960968016498E+00
 342     8 O     2.566900164385E+00  1.608355251998E+01 -7.745430673881E+00
 343     1 H     1.729991534439E+00  2.294007468285E+01  3.373984112999E+00
 344     1 H     1.729991534439E+00  2.213220995927E+01  6.913470732421E+00
 345     1 H     4.515214366123E+00  2.260552370766E+01  5.159563271444E+00
 346     8 O     1.768590606442E+00  2.197017456671E+01  3.304500144310E+00
 347     8 O     1.768590606442E+00  2.122821218551E+01  6.555249736067E+00
 348     8 O     4.438016222116E+00  2.166026310380E+01  4.943813707016E+00
 349    12 MG    3.536987072649E+00  2.032678604651E+01  6.255808102430E+00
 350    12 MG    3.536987072649E+00  2.102809482310E+01  3.183173590240E+00
 351    12 MG    9.012232897025E-01  2.073443545521E+01  4.732499587815E+00
 352     8 O     2.658399145000E+00  1.961294080986E+01  4.476525753451E+00
 353     8 O     2.658399145000E+00  1.870291678925E+01  7.340353929173E+00
 354     8 O     2.658399145000E+00  2.003560597532E+01  1.501461099355E+00
 355     1 H     2.658399145000E+00  1.866888566525E+01  4.261051327228E+00
 356    14 SI    2.658399145000E+00  1.721100852888E+01  6.754823084740E+00
 357    14 SI    2.658399145000E+00  1.843739076681E+01  1.381691426956E+00
 358     8 O     1.374949062808E+00  1.773129980485E+01  2.067211943039E+00
 359     8 O     1.374949062808E+00  1.687227875901E+01  5.830829054708E+00
 360     8 O     5.225299309385E+00  1.740382474622E+01  3.972309427754E+00
 361     1 H     4.388390679439E+00  1.583162791113E+01  1.694078961952E+01
 362     1 H     4.388390679439E+00  1.299318002564E+01  1.920437627393E+01
 363     1 H     1.856815221123E+00  1.445677503053E+01  1.812822249880E+01
 364     8 O     4.426989751442E+00  1.511665201135E+01  1.628174203404E+01
 365     8 O     4.426989751442E+00  1.250975324407E+01  1.836067442846E+01
 366     8 O     1.779617077116E+00  1.385225818448E+01  1.737018235040E+01
 367    12 MG    8.785879276487E-01  1.199168871430E+01  1.756453152732E+01
 368    12 MG    8.785879276487E-01  1.445575027796E+01  1.559950800173E+01
 369    12 MG    3.559622434703E+00  1.326016917978E+01  1.662772622214E+01
 370     8 O     0.000000000000E+00  1.254294643390E+01  1.572835734553E+01
 371     8 O    -8.881784197001E-16  1.004589334294E+01  1.739999767739E+01
 372     8 O    -1.776356839400E-15  1.472832183849E+01  1.366588555685E+01
 373     1 H     0.000000000000E+00  1.193920050796E+01  1.497128390039E+01
 374    14 SI   -8.881784197001E-16  9.244545006210E+00  1.601202164361E+01
 375    14 SI   -1.776356839400E-15  1.355346204203E+01  1.257577497264E+01
 376     8 O     4.033348207808E+00  1.257400284774E+01  1.267149598002E+01
 377     8 O     4.033348207808E+00  9.555816262776E+00  1.507841946422E+01
 378     8 O     2.566900164385E+00  1.113016368392E+01  1.395678381133E+01
 379     1 H     1.729991534439E+00  1.815255556434E+00  2.311570121182E+01
 380     1 H     1.729991534439E+00 -1.815255556434E+00  2.311570121182E+01
 381     1 H     4.515214366123E+00  1.277807503260E-14  2.318686687005E+01
 382     8 O     1.768590606442E+00  1.667174337271E+00  2.215465687896E+01
 383     8 O     1.768590606442E+00 -1.667174337271E+00  2.215465687896E+01
 384     8 O     4.438016222116E+00  1.224375381635E-14  2.221729712849E+01
 385    12 MG    3.536987072649E+00 -1.575826516913E+00  2.120919934329E+01
 386    12 MG    3.536987072649E+00  1.575826516913E+00  2.120919934329E+01
 387    12 MG    9.012232897025E-01  1.183466362258E-14  2.126766009684E+01
 388     8 O     2.658399145000E+00  1.108647746982E-14  2.011732412704E+01
 389     8 O     2.658399145000E+00 -2.994525419193E+00  1.986737802894E+01
 390     8 O     2.658399145000E+00  2.994525419193E+00  1.986737802894E+01
 391     1 H     2.658399145000E+00  1.055283765555E-14  1.914899084535E+01
 392    14 SI    2.658399145000E+00 -2.755655874986E+00  1.828258215313E+01
 393    14 SI    2.658399145000E+00  2.755655874986E+00  1.828258215313E+01
 394     8 O     1.374949062808E+00  1.930202769170E+00  1.774673703126E+01
 395     8 O     1.374949062808E+00 -1.930202769170E+00  1.774673703126E+01
 396     8 O     5.225299309385E+00  9.837745028046E-15  1.785139652764E+01
 397     1 H     4.388390679439E+00 -1.299318002564E+01  1.920437627393E+01
 398     1 H     4.388390679439E+00 -1.583162791113E+01  1.694078961952E+01
 399     1 H     1.856815221123E+00 -1.445677503053E+01  1.812822249880E+01
 400     8 O     4.426989751442E+00 -1.250975324407E+01  1.836067442846E+01
 401     8 O     4.426989751442E+00 -1.511665201135E+01  1.628174203404E+01
 402     8 O     1.779617077116E+00 -1.385225818448E+01  1.737018235040E+01
 403    12 MG    8.785879276487E-01 -1.445575027796E+01  1.559950800173E+01
 404    12 MG    8.785879276487E-01 -1.199168871430E+01  1.756453152732E+01
 405    12 MG    3.559622434703E+00 -1.326016917978E+01  1.662772622214E+01
 406     8 O     0.000000000000E+00 -1.254294643390E+01  1.572835734553E+01
 407     8 O     6.217248937901E-15 -1.472832183849E+01  1.366588555685E+01
 408     8 O     5.329070518201E-15 -1.004589334294E+01  1.739999767739E+01
 409     1 H     0.000000000000E+00 -1.193920050796E+01  1.497128390039E+01
 410    14 SI    6.217248937901E-15 -1.355346204203E+01  1.257577497264E+01
 411    14 SI    5.329070518201E-15 -9.244545006210E+00  1.601202164361E+01
 412     8 O     4.033348207808E+00 -9.555816262776E+00  1.507841946422E+01
 413     8 O     4.033348207808E+00 -1.257400284774E+01  1.267149598002E+01
 414     8 O     2.566900164385E+00 -1.113016368392E+01  1.395678381133E+01
 415     1 H     1.729991534439E+00 -2.213220995927E+01  6.913470732421E+00
 416     1 H     1.729991534439E+00 -2.294007468285E+01  3.373984112999E+00
 417     1 H     4.515214366123E+00 -2.260552370766E+01  5.159563271444E+00
 418     8 O     1.768590606442E+00 -2.122821218551E+01  6.555249736067E+00
 419     8 O     1.768590606442E+00 -2.197017456671E+01  3.304500144310E+00
 420     8 O     4.438016222116E+00 -2.166026310380E+01  4.943813707016E+00
 421    12 MG    3.536987072649E+00 -2.102809482310E+01  3.183173590240E+00
 422    12 MG    3.536987072649E+00 -2.032678604651E+01  6.255808102430E+00
 423    12 MG    9.012232897025E-01 -2.073443545521E+01  4.732499587815E+00
 424     8 O     2.658399145000E+00 -1.961294080986E+01  4.476525753451E+00
 425     8 O     2.658399145000E+00 -2.003560597532E+01  1.501461099355E+00
 426     8 O     2.658399145000E+00 -1.870291678925E+01  7.340353929173E+00
 427     1 H     2.658399145000E+00 -1.866888566525E+01  4.261051327228E+00
 428    14 SI    2.658399145000E+00 -1.843739076681E+01  1.381691426956E+00
 429    14 SI    2.658399145000E+00 -1.721100852888E+01  6.754823084740E+00
 430     8 O     1.374949062808E+00 -1.687227875901E+01  5.830829054708E+00
 431     8 O     1.374949062808E+00 -1.773129980485E+01  2.067211943039E+00
 432     8 O     5.225299309385E+00 -1.740382474622E+01  3.972309427754E+00
 433     1 H     4.388390679439E+00 -2.161413701987E+01 -8.394038130476E+00
 434     1 H     4.388390679439E+00 -2.003891728331E+01 -1.166501561774E+01
 435     1 H     1.856815221123E+00 -2.089064519411E+01 -1.006040449600E+01
 436     8 O     4.426989751442E+00 -2.068401596222E+01 -8.110473190264E+00
 437     8 O     4.426989751442E+00 -1.923729629179E+01 -1.111461754076E+01
 438     8 O     1.779617077116E+00 -2.001709304170E+01 -9.639723951193E+00
 439    12 MG    8.785879276487E-01 -1.842510282008E+01 -1.062209734771E+01
 440    12 MG    8.785879276487E-01 -1.979255382280E+01 -7.782556081804E+00
 441    12 MG    3.559622434703E+00 -1.916149964039E+01 -9.227691885100E+00
 442     8 O     0.000000000000E+00 -1.812508274397E+01 -8.728579813281E+00
 443     8 O     5.316798290000E+00 -1.660061320516E+01 -1.131810644249E+01
 444     8 O     5.316798290000E+00 -1.919916497669E+01 -5.922158088825E+00
 445     1 H     0.000000000000E+00 -1.725264460341E+01 -8.308435748309E+00
 446    14 SI    5.316798290000E+00 -1.527640307008E+01 -1.041527525934E+01
 447    14 SI    5.316798290000E+00 -1.766767161960E+01 -5.449754951310E+00
 448     8 O     4.033348207808E+00 -1.682674116676E+01 -5.960968016498E+00
 449     8 O     4.033348207808E+00 -1.515177397728E+01 -9.439073224022E+00
 450     8 O     2.566900164385E+00 -1.608355251998E+01 -7.745430673881E+00
 451     1 H     1.729991534439E+00 -1.166501561774E+01 -2.003891728331E+01
 452     1 H     1.729991534439E+00 -8.394038130476E+00 -2.161413701987E+01
 453     1 H     4.515214366123E+00 -1.006040449600E+01 -2.089064519411E+01
 454     8 O     1.768590606442E+00 -1.111461754076E+01 -1.923729629179E+01
 455     8 O     1.768590606442E+00 -8.110473190264E+00 -2.068401596222E+01
 456     8 O     4.438016222116E+00 -9.639723951193E+00 -2.001709304170E+01
 457    12 MG    3.536987072649E+00 -7.782556081804E+00 -1.979255382280E+01
 458    12 MG    3.536987072649E+00 -1.062209734771E+01 -1.842510282008E+01
 459    12 MG    9.012232897025E-01 -9.227691885100E+00 -1.916149964039E+01
 460     8 O     2.658399145000E+00 -8.728579813281E+00 -1.812508274397E+01
 461     8 O     2.658399145000E+00 -5.922158088825E+00 -1.919916497669E+01
 462     8 O     2.658399145000E+00 -1.131810644249E+01 -1.660061320516E+01
 463     1 H     2.658399145000E+00 -8.308435748309E+00 -1.725264460341E+01
 464    14 SI    2.658399145000E+00 -5.449754951310E+00 -1.766767161960E+01
 465    14 SI    2.658399145000E+00 -1.041527525934E+01 -1.527640307008E+01
 466     8 O     1.374949062808E+00 -9.439073224022E+00 -1.515177397728E+01
 467     8 O     1.374949062808E+00 -5.960968016498E+00 -1.682674116676E+01
 468     8 O     5.225299309385E+00 -7.745430673881E+00 -1.608355251998E+01
 469     1 H     4.388390679439E+00  3.373984112999E+00 -2.294007468285E+01
 470     1 H     4.388390679439E+00  6.913470732421E+00 -2.213220995927E+01
 471     1 H     1.856815221123E+00  5.159563271444E+00 -2.260552370766E+01
 472     8 O     4.426989751442E+00  3.304500144310E+00 -2.197017456671E+01
 473     8 O     4.426989751442E+00  6.555249736067E+00 -2.122821218551E+01
 474     8 O     1.779617077116E+00  4.943813707016E+00 -2.166026310380E+01
 475    12 MG    8.785879276487E-01  6.255808102430E+00 -2.032678604651E+01
 476    12 MG    8.785879276487E-01  3.183173590240E+00 -2.102809482310E+01
 477    12 MG    3.559622434703E+00  4.732499587815E+00 -2.073443545521E+01
 478     8 O     0.000000000000E+00  4.476525753451E+00 -1.961294080986E+01
 479     8 O     6.217248937901E-15  7.340353929173E+00 -1.870291678925E+01
 480     8 O     5.329070518201E-15  1.501461099355E+00 -2.003560597532E+01
 481     1 H     0.000000000000E+00  4.261051327228E+00 -1.866888566525E+01
 482    14 SI    6.217248937901E-15  6.754823084740E+00 -1.721100852888E+01
 483    14 SI    5.329070518201E-15  1.381691426956E+00 -1.843739076681E+01
 484     8 O     4.033348207808E+00  2.067211943039E+00 -1.773129980485E+01
 485     8 O     4.033348207808E+00  5.830829054708E+00 -1.687227875901E+01
 486     8 O     2.566900164385E+00  3.972309427754E+00 -1.740382474622E+01
 487     1 H     1.729991534439E+00  1.694078961952E+01 -1.583162791113E+01
 488     1 H     1.729991534439E+00  1.920437627393E+01 -1.299318002564E+01
 489     1 H     4.515214366123E+00  1.812822249880E+01 -1.445677503053E+01
 490     8 O     1.768590606442E+00  1.628174203404E+01 -1.511665201135E+01
 491     8 O     1.768590606442E+00  1.836067442846E+01 -1.250975324407E+01
 492     8 O     4.438016222116E+00  1.737018235040E+01 -1.385225818448E+01
 493    12 MG    3.536987072649E+00  1.756453152732E+01 -1.199168871430E+01
 494    12 MG    3.536987072649E+00  1.559950800173E+01 -1.445575027796E+01
 495    12 MG    9.012232897025E-01  1.662772622214E+01 -1.326016917978E+01
 496     8 O     2.658399145000E+00  1.572835734553E+01 -1.254294643390E+01
 497     8 O     2.658399145000E+00  1.739999767739E+01 -1.004589334294E+01
 498     8 O     2.658399145000E+00  1.366588555685E+01 -1.472832183849E+01
 499     1 H     2.658399145000E+00  1.497128390039E+01 -1.193920050796E+01
 500    14 SI    2.658399145000E+00  1.601202164361E+01 -9.244545006210E+00
 501    14 SI    2.658399145000E+00  1.257577497264E+01 -1.355346204203E+01
 502     8 O     1.374949062808E+00  1.267149598002E+01 -1.257400284774E+01
 503     8 O     1.374949062808E+00  1.507841946422E+01 -9.555816262776E+00
 504     8 O     5.225299309385E+00  1.395678381133E+01 -1.113016368392E+01
 WARNING **** CRYSTA **** TESTGEOM  DIRECTIVE - GEOMETRY EDITING COMPLETE
 TTTTTTTTTTTTTTTTTTTTTTTTTTTTTT END         TELAPSE        0.03 TCPU        0.03
 EEEEEEEEEE TERMINATION  DATE 12 08 2009 TIME 12:58:16.4
NODE    0 CPU TIME =         0.032
    TOTAL CPU TIME =         0.032
Wed Aug 12 12:58:16 CEST 2009
