/home/test/raffaella/cvs090720/bin/Linux-ifort_mpich_1.2.7.debian4.0_2.6_dyn/std
/data/raffa/tmp_test_nano08_30559
TEST05 - zigzag C NANOTUBE - 6-21G, PBE, optimization
SLAB
77
2.47
1
6  -0.33333333333 0.33333333333 0.
SWCNT
8 0
OPTGEOM
FULLOPTG
FINALRUN
4
END
END
6  3
2 0 6  2.  0.
2 1 2  4.  0.
2 1 1  0.  0.
99 0
END
DFT
EXCHANGE
PBE
CORRELAT
PBE
XLGRID
END
TOLINTEG
8 8 8 8 16
SHRINK
10 10
SCFDIR
LEVSHIFT
10 1
FMIXING
30
TOLDEE
8
MAXCYCLES
100
END

Wed Aug 12 13:03:56 CEST 2009
 PROCESS            0  OF            1  WORKING

         
 *******************************************************************************
 *                                                                             *
 *                                CRYSTAL09                                    *
 *                              develop : 1.0                                  *
 *                      cvs090720 - parallel executable                        *
 *                                                                             *
 *                                                                             *
 *                                                                             *
 *                              MAIN AUTHORS                                   *
 *                                                                             *
 *    R. DOVESI(1,10), V.R. SAUNDERS(2), C. ROETTI(1,10), R. ORLANDO (1,3),    *
 *  C.M. ZICOVICH-WILSON(1,4), F. PASCALE(5), B. CIVALLERI(1,10), K. DOLL(6),  *
 *       N.M. HARRISON(2,7), I. J. BUSH(2), Ph. D'ARCO(8), M. LLUNELL(9)       *
 *                                                                             *
 * (1) THEORETICAL CHEMISTRY GROUP - UNIVERSITA' DI TORINO - TORINO (ITALY)    *
 *      http://www.crystal.unito.it                                            *
 * (2) COMPUTATIONAL SCIENCE & ENGINEERING DEPARTMENT - CCLRC DARESBURY (UK)   *
 *     http://www.cse.clrc.ac.uk/cmg/CRYSTAL/                                  *
 * (3) UNIVERSITA' DEL PIEMONTE ORIENTALE - ALESSANDRIA (ITALY)                *
 * (4) UNIVERSIDAD AUTONOMA DEL ESTADO DE MORELOS - CUERNAVACA (MEXICO)        *
 * (5) UNIVERSITE' HENRI POINCARE' - NANCY (FRANCE)                            *
 * (6) MPI FUER FESTKOERPERFORSCHUNG - STUTTGART (GERMANY)                     *
 * (7) IMPERIAL COLLEGE - LONDON (UK)                                          *
 * (8) UNIVERSITE' PIERRE ET MARIE CURIE - PARIS (FRANCE)                      *
 * (9) UNIVERSIDAD DE BARCELONA - BARCELONA (SPAIN)                            *
 *(10) NIS - NANOSTRUCTURED INTERFACES AND SURFACES - TORINO (ITALY)           *
 *     http://www.crystal.unito.it                                             *
 *******************************************************************************
 EEEEEEEEEE STARTING  DATE 12 08 2009 TIME 13:03:56.7
 TEST05 - zigzag C NANOTUBE - 6-21G, PBE, optimization                           

 SLAB CALCULATION
 SYSTEM AND LATTICE                   :  HEXAGONAL   
 TWO-SIDED PLANE GROUP N. 77          :  P 6 M M         
 CORRESPONDING SPACE GROUP N. 183

 LATTICE PARAMETERS  (ANGSTROMS AND DEGREES) - CONVENTIONAL CELL
           A              B            GAMMA
        2.47000        2.47000      120.00000


 NUMBER OF IRREDUCIBLE ATOMS IN THE CONVENTIONAL CELL:    1

 INPUT COORDINATES

 ATOM AT. N.              COORDINATES
   1   6    -3.333333333300E-01  3.333333333300E-01  0.000000000000E+00

 *******************************************************************************

 << INFORMATION >>: FROM NOW ON, ALL COORDINATES REFER TO THE PRIMITIVE CELL

 *******************************************************************************

 LATTICE PARAMETERS  (ANGSTROMS AND DEGREES) - PRIMITIVE CELL
       A          B          C         ALPHA     BETA     GAMMA        VOLUME
    2.47000    2.47000  500.00000    90.00000  90.00000 120.00000      5.283534

 COORDINATES OF THE EQUIVALENT ATOMS 
 (X AND Y IN FRACTIONARY UNITS, Z IN ANGSTROMS)

 N. ATOM EQUIV AT. N.          X                  Y                  Z

   1   1   1    6 C    -3.33333333330E-01  3.33333333330E-01  0.00000000000E+00
   2   1   2    6 C     3.33333333330E-01 -3.33333333330E-01  0.00000000000E+00

 NUMBER OF SYMMETRY OPERATORS         :   12
 *******************************************************************************
 * GEOMETRY EDITING - INPUT COORDINATES ARE GIVEN IN ANGSTROM          
 *******************************************************************************

 GEOMETRY NOW FULLY CONSISTENT WITH THE GROUP
 *******************************************************************************
 *                                                                             *
 *                 CONSTRUCTION OF A NANOTUBE FROM A SLAB                      *
 *                                                                             *
 * Y. Noel, P. D'Arco, R. Demichelis, C.M. Zicovich-Wilson, R. Dovesi          *
 * On the use of symmetry in the ab initio quantum mechanical simulation of    *
 * nanotubes and related materials                                             *
 * J. Comp. Chem. (2009), in press                                             *
 *                                                                             *
 *******************************************************************************

 ********** SWCNT **********
 INPUT ROLL UP DIRECTION    8   0
 ***************************

 DISTINCTIVE NANOTUBE VECTORS EXPRESSED IN THE SLAB UNIT CELL BASIS A AND B
                                                   A   B
       ROLL UP DIRECTION, R                        8   0
       HELICAL DIRECTION, H                        0   1
       CYLINDER AXIS, L                            1   2

 LENGTHS IN ANGSTROM
       CYLINDER RADIUS                             3.145
       PERIOD ALONG THE CYLINDER AXIS, |L|         4.278
       THICKNESS OF THE SLAB                       0.000

 NUMBER OF ATOMS                                      32
 CHIRAL ANGLE                                      0.000 DEG

 NANOTUBE SYMMETRY
       NUMBER OF SYMMETRY OPERATORS                   16
       NUMBER OF ATOMS IN THE ASYMMETRIC UNIT          2
       THE HELICAL OPERATOR:
         ORDER                                        16
         ANGLE                                 (   3/ 16)x2PI RAD => 67.500 DEG
         TRANSLATION                               1/  2 OF THE CYLINDER PERIOD
                                                   2.1391 ANGSTROM

 INFORMATION **** FULLOPTG **** FULL OPTIMIZATION (ATOMS AND CELL PARAMETERS
 *******************************************************************************
 COMBINED CELL/ATOM OPTIMIZATION CONTROL

 MAXIMUM GRADIENT COMPONENT   0.00045 MAXIMUM DISPLACEMENT COMPONENT     0.00180
 R.M.S. OF GRADIENT COMPONENT 0.00030 R.M.S. OF DISPLACEMENT COMPONENTS  0.00120
 THRESHOLD ON ENERGY CHANGE 0.100E-06 EXTRAPOLATING POLYNOMIAL ORDER           2
 MAXIMUM ALLOWED NUMBER OF STEPS  100 SORTING OF ENERGY POINTS:               NO
 ANALYTICAL  GRADIENT                 HESSIAN UPDATING                      BFGS
 STEP SIZE NUMERICAL GRADIENT 0.00100
 INITIAL HESSIAN MATRIX: SCHLEGEL MODEL 2
 *******************************************************************************


 GCALCO - MAX INDICES DIRECT LATTICE VECTOR 13998     0     0
 NO.OF VECTORS CREATED 6999 STARS 3500 RMAX 28287.87943 BOHR

 GEOMETRY FOR WAVE FUNCTION - DIMENSIONALITY OF THE SYSTEM    1
 (NON PERIODIC DIRECTION: LATTICE PARAMETER FORMALLY SET TO 500)
 *******************************************************************************
 LATTICE PARAMETERS (ANGSTROMS AND DEGREES) - BOHR = 0.5291772083 ANGSTROM
 PRIMITIVE CELL
         A              B              C           ALPHA      BETA       GAMMA 
     4.27816549   500.00000000   500.00000000    90.000000  90.000000  90.000000
 *******************************************************************************
 ATOMS IN THE ASYMMETRIC UNIT    2 - ATOMS IN THE UNIT CELL:   32
     ATOM              X/A             Y(ANGSTROM)         Z(ANGSTROM)   R(ANGS)
 *******************************************************************************
   1 T   6 C    -0.33333333333E+00  0.31449016755E+01  0.89896601184E-16   3.145
   2 T   6 C    -0.16666666667E+00  0.29055102898E+01 -0.12035017676E+01   3.145
   3 F   6 C     0.16666666667E+00  0.12035017676E+01  0.29055102898E+01   3.145
   4 F   6 C     0.33333333333E+00  0.22237813009E+01  0.22237813009E+01   3.145
   5 F   6 C    -0.33333333333E+00 -0.22237813009E+01  0.22237813009E+01   3.145
   6 F   6 C    -0.16666666667E+00 -0.12035017676E+01  0.29055102898E+01   3.145
   7 F   6 C     0.16666666667E+00 -0.29055102898E+01 -0.12035017676E+01   3.145
   8 F   6 C     0.33333333333E+00 -0.31449016755E+01  0.00000000000E+00   3.145
   9 F   6 C    -0.33333333333E+00 -0.48781246440E-15 -0.31449016755E+01   3.145
  10 F   6 C    -0.16666666667E+00 -0.12035017676E+01 -0.29055102898E+01   3.145
  11 F   6 C     0.16666666667E+00  0.29055102898E+01 -0.12035017676E+01   3.145
  12 F   6 C     0.33333333333E+00  0.22237813009E+01 -0.22237813009E+01   3.145
  13 F   6 C    -0.33333333333E+00  0.22237813009E+01  0.22237813009E+01   3.145
  14 F   6 C    -0.16666666667E+00  0.29055102898E+01  0.12035017676E+01   3.145
  15 F   6 C     0.16666666667E+00 -0.12035017676E+01  0.29055102898E+01   3.145
  16 F   6 C     0.33333333333E+00 -0.88817841970E-15  0.31449016755E+01   3.145
  17 F   6 C    -0.33333333333E+00 -0.31449016755E+01  0.10655215300E-14   3.145
  18 F   6 C    -0.16666666667E+00 -0.29055102898E+01  0.12035017676E+01   3.145
  19 F   6 C     0.16666666667E+00 -0.12035017676E+01 -0.29055102898E+01   3.145
  20 F   6 C     0.33333333333E+00 -0.22237813009E+01 -0.22237813009E+01   3.145
  21 F   6 C    -0.33333333333E+00  0.22237813009E+01 -0.22237813009E+01   3.145
  22 F   6 C    -0.16666666667E+00  0.12035017676E+01 -0.29055102898E+01   3.145
  23 F   6 C     0.16666666667E+00  0.29055102898E+01  0.12035017676E+01   3.145
  24 F   6 C     0.33333333333E+00  0.31449016755E+01  0.22204460493E-15   3.145
  25 F   6 C    -0.33333333333E+00  0.16432305956E-14  0.31449016755E+01   3.145
  26 F   6 C    -0.16666666667E+00  0.12035017676E+01  0.29055102898E+01   3.145
  27 F   6 C     0.16666666667E+00 -0.29055102898E+01  0.12035017676E+01   3.145
  28 F   6 C     0.33333333333E+00 -0.22237813009E+01  0.22237813009E+01   3.145
  29 F   6 C    -0.33333333333E+00 -0.22237813009E+01 -0.22237813009E+01   3.145
  30 F   6 C    -0.16666666667E+00 -0.29055102898E+01 -0.12035017676E+01   3.145
  31 F   6 C     0.16666666667E+00  0.12035017676E+01 -0.29055102898E+01   3.145
  32 F   6 C     0.33333333333E+00 -0.44408920985E-15 -0.31449016755E+01   3.145

 T = ATOM BELONGING TO THE ASYMMETRIC UNIT

 ****  16 SYMMOPS - TRANSLATORS IN FRACTIONARY UNITS
  V INV                   ROTATION MATRICES                       TRANSLATOR
  1  1  1.00  0.00  0.00  0.00  1.00  0.00  0.00  0.00  1.00    0.00  0.00  0.00
  2 16  1.00  0.00  0.00  0.00  0.38 -0.92  0.00  0.92  0.38    0.50  0.00  0.00
  3 15  1.00  0.00  0.00  0.00 -0.71 -0.71  0.00  0.71 -0.71    1.00  0.00  0.00
  4 14  1.00  0.00  0.00  0.00 -0.92  0.38  0.00 -0.38 -0.92    1.50  0.00  0.00
  5 13  1.00  0.00  0.00  0.00  0.00  1.00  0.00 -1.00  0.00    2.00  0.00  0.00
  6 12  1.00  0.00  0.00  0.00  0.92  0.38  0.00 -0.38  0.92    2.50  0.00  0.00
  7 11  1.00  0.00  0.00  0.00  0.71 -0.71  0.00  0.71  0.71    3.00  0.00  0.00
  8 10  1.00  0.00  0.00  0.00 -0.38 -0.92  0.00  0.92 -0.38    3.50  0.00  0.00
  9  9  1.00  0.00  0.00  0.00 -1.00  0.00  0.00  0.00 -1.00    4.00  0.00  0.00
 10  8  1.00  0.00  0.00  0.00 -0.38  0.92  0.00 -0.92 -0.38    4.50  0.00  0.00
 11  7  1.00  0.00  0.00  0.00  0.71  0.71  0.00 -0.71  0.71    5.00  0.00  0.00
 12  6  1.00  0.00  0.00  0.00  0.92 -0.38  0.00  0.38  0.92    5.50  0.00  0.00
 13  5  1.00  0.00  0.00  0.00  0.00 -1.00  0.00  1.00  0.00    6.00  0.00  0.00
 14  4  1.00  0.00  0.00  0.00 -0.92 -0.38  0.00  0.38 -0.92    6.50  0.00  0.00
 15  3  1.00  0.00  0.00  0.00 -0.71  0.71  0.00 -0.71 -0.71    7.00  0.00  0.00
 16  2  1.00  0.00  0.00  0.00  0.38  0.92  0.00 -0.92  0.38    7.50  0.00  0.00

 DIRECT LATTICE VECTORS CARTESIAN COMPONENTS (ANGSTROM)
          X                    Y                    Z
   0.427816549470E+01   0.000000000000E+00   0.000000000000E+00
   0.000000000000E+00   0.500000000000E+03   0.000000000000E+00
   0.000000000000E+00   0.000000000000E+00   0.500000000000E+03


 CARTESIAN COORDINATES - PRIMITIVE CELL
 *******************************************************************************
 *      ATOM          X(ANGSTROM)         Y(ANGSTROM)         Z(ANGSTROM)
 *******************************************************************************
   1     6 C     2.852110329797E+00  3.144901675496E+00  8.989660118422E-17
   2     6 C     3.565137912246E+00  2.905510289751E+00 -1.203501767629E+00
   3     6 C     7.130275824492E-01  1.203501767629E+00  2.905510289751E+00
   4     6 C     1.426055164898E+00  2.223781300908E+00  2.223781300908E+00
   5     6 C     2.852110329797E+00 -2.223781300908E+00  2.223781300908E+00
   6     6 C     3.565137912246E+00 -1.203501767629E+00  2.905510289751E+00
   7     6 C     7.130275824492E-01 -2.905510289751E+00 -1.203501767629E+00
   8     6 C     1.426055164898E+00 -3.144901675496E+00  0.000000000000E+00
   9     6 C     2.852110329797E+00 -4.878124643951E-16 -3.144901675496E+00
  10     6 C     3.565137912246E+00 -1.203501767629E+00 -2.905510289751E+00
  11     6 C     7.130275824492E-01  2.905510289751E+00 -1.203501767629E+00
  12     6 C     1.426055164898E+00  2.223781300908E+00 -2.223781300908E+00
  13     6 C     2.852110329797E+00  2.223781300908E+00  2.223781300908E+00
  14     6 C     3.565137912246E+00  2.905510289751E+00  1.203501767629E+00
  15     6 C     7.130275824492E-01 -1.203501767629E+00  2.905510289751E+00
  16     6 C     1.426055164898E+00 -8.881784197001E-16  3.144901675496E+00
  17     6 C     2.852110329797E+00 -3.144901675496E+00  1.065521529975E-15
  18     6 C     3.565137912246E+00 -2.905510289751E+00  1.203501767629E+00
  19     6 C     7.130275824492E-01 -1.203501767629E+00 -2.905510289751E+00
  20     6 C     1.426055164898E+00 -2.223781300908E+00 -2.223781300908E+00
  21     6 C     2.852110329797E+00  2.223781300908E+00 -2.223781300908E+00
  22     6 C     3.565137912246E+00  1.203501767629E+00 -2.905510289751E+00
  23     6 C     7.130275824492E-01  2.905510289751E+00  1.203501767629E+00
  24     6 C     1.426055164898E+00  3.144901675496E+00  2.220446049250E-16
  25     6 C     2.852110329797E+00  1.643230595554E-15  3.144901675496E+00
  26     6 C     3.565137912246E+00  1.203501767629E+00  2.905510289751E+00
  27     6 C     7.130275824492E-01 -2.905510289751E+00  1.203501767629E+00
  28     6 C     1.426055164898E+00 -2.223781300908E+00  2.223781300908E+00
  29     6 C     2.852110329797E+00 -2.223781300908E+00 -2.223781300908E+00
  30     6 C     3.565137912246E+00 -2.905510289751E+00 -1.203501767629E+00
  31     6 C     7.130275824492E-01  1.203501767629E+00 -2.905510289751E+00
  32     6 C     1.426055164898E+00 -4.440892098501E-16 -3.144901675496E+00

 *******************************************************************************
 LOCAL ATOMIC FUNCTIONS BASIS SET
 *******************************************************************************
   ATOM  X(AU)  Y(AU)  Z(AU)    NO. TYPE  EXPONENT  S COEF   P COEF   D/F/G COEF
 *******************************************************************************
   1 C   5.390  5.943  0.000
                                  1 S  
                                         3.048E+03 1.826E-03 0.000E+00 0.000E+00
                                         4.564E+02 1.406E-02 0.000E+00 0.000E+00
                                         1.037E+02 6.876E-02 0.000E+00 0.000E+00
                                         2.923E+01 2.304E-01 0.000E+00 0.000E+00
                                         9.349E+00 4.685E-01 0.000E+00 0.000E+00
                                         3.189E+00 3.628E-01 0.000E+00 0.000E+00
                             2-   5 SP 
                                         3.665E+00-3.959E-01 2.365E-01 0.000E+00
                                         7.705E-01 1.216E+00 8.606E-01 0.000E+00
                             6-   9 SP 
                                         1.959E-01 1.000E+00 1.000E+00 0.000E+00
   2 C   6.737  5.491 -2.274
   3 C   1.347  2.274  5.491
   4 C   2.695  4.202  4.202
   5 C   5.390 -4.202  4.202
   6 C   6.737 -2.274  5.491
   7 C   1.347 -5.491 -2.274
   8 C   2.695 -5.943  0.000
   9 C   5.390  0.000 -5.943
  10 C   6.737 -2.274 -5.491
  11 C   1.347  5.491 -2.274
  12 C   2.695  4.202 -4.202
  13 C   5.390  4.202  4.202
  14 C   6.737  5.491  2.274
  15 C   1.347 -2.274  5.491
  16 C   2.695  0.000  5.943
  17 C   5.390 -5.943  0.000
  18 C   6.737 -5.491  2.274
  19 C   1.347 -2.274 -5.491
  20 C   2.695 -4.202 -4.202
  21 C   5.390  4.202 -4.202
  22 C   6.737  2.274 -5.491
  23 C   1.347  5.491  2.274
  24 C   2.695  5.943  0.000
  25 C   5.390  0.000  5.943
  26 C   6.737  2.274  5.491
  27 C   1.347 -5.491  2.274
  28 C   2.695 -4.202  4.202
  29 C   5.390 -4.202 -4.202
  30 C   6.737 -5.491 -2.274
  31 C   1.347  2.274 -5.491
  32 C   2.695  0.000 -5.943
 INFORMATION **** TOLINTEG **** COULOMB AND EXCHANGE SERIES TOLERANCES MODIFIED
 INFORMATION **** READM2 **** FULL DIRECT SCF (MONO AND BIEL INT) SELECTED
 INFORMATION **** LEVSHIFT **** LEVEL SHIFTER ACTIVE
 INFORMATION **** TOLDEE **** SCF TOL ON TOTAL ENERGY SET TO           8
 INFORMATION **** MAXCYCLE **** MAX NUMBER OF SCF CYCLES SET TO         100
 *******************************************************************************
 N. OF ATOMS PER CELL       32  COULOMB OVERLAP TOL         (T1) 10** -8
 NUMBER OF SHELLS           96  COULOMB PENETRATION TOL     (T2) 10** -8
 NUMBER OF AO              288  EXCHANGE OVERLAP TOL        (T3) 10** 20
 N. OF ELECTRONS PER CELL  192  EXCHANGE PSEUDO OVP (F(G))  (T4) 10** 20
 CORE ELECTRONS PER CELL    64  EXCHANGE PSEUDO OVP (P(G))  (T5) 10** 20
 N. OF SYMMETRY OPERATORS   16  POLE ORDER IN MONO ZONE                4
 *******************************************************************************
 TYPE OF CALCULATION :  RESTRICTED CLOSED SHELL
 KOHN-SHAM HAMILTONIAN

 (EXCHANGE)[CORRELATION] FUNCTIONAL:(PERDEW-BURKE-ERNZERHOF)[PERDEW-BURKE-ERNZERHOF]

 EIGENVALUE LEVEL SHIFTING OF  1.000 HARTREE
 LOCKING - FERMI ENERGY ALTERED BY LEVEL SHIFTER

 CAPPA:IS1 10;IS2  1;IS3  1; K PTS MONK NET    6; SYMMOPS: K SPACE 32;G SPACE 16

 *******************************************************************************
 MAX NUMBER OF SCF CYCLES     100  CONVERGENCE ON DELTAP        10**-18
 WEIGHT OF F(I) IN F(I+1)      30% CONVERGENCE ON ENERGY        10**- 8
 EIGENVALUE LEVEL SHIFTING OF  1.000 HARTREE
 LOCKING - FERMI ENERGY ALTERED BY LEVEL SHIFTER
 SHRINK. FACT.(MONKH.)   10  1  1  NUMBER OF K POINTS IN THE IBZ      6
 SHRINKING FACTOR(GILAT NET)   10  NUMBER OF K POINTS(GILAT NET)      6
 *******************************************************************************
 *** K POINTS COORDINATES (OBLIQUE COORDINATES IN UNITS OF IS = 10)
   1-R(  0  0  0)   2-C(  1  0  0)   3-C(  2  0  0)   4-C(  3  0  0)
   5-C(  4  0  0)   6-R(  5  0  0)

 DIRECT LATTICE VECTORS COMPON. (A.U.)     RECIP. LATTICE VECTORS COMPON. (A.U.) 
        X            Y            Z              X            Y            Z
    8.0845611    0.0000000    0.0000000      0.7771832    0.0000000    0.0000000
    0.0000000  944.8630670    0.0000000      0.0000000    0.0066498    0.0000000
    0.0000000    0.0000000  944.8630670      0.0000000    0.0000000    0.0066498

 DISK SPACE FOR EIGENVECTORS (FTN 10)     829440 REALS

 SYMMETRY ADAPTION OF THE BLOCH FUNCTIONS ENABLED

 DIMENSIONS  P(G)=  110208 F(G)=   55376 P(G),F(G) (IRR)    3525
 MAX G-VECTOR INDEX FOR 1- AND 2-ELECTRON INTEGRALS  16

 TTTTTTTTTTTTTTTTTTTTTTTTTTTTTT INPUT       TELAPSE        0.01 TCPU        0.00

 NEIGHBORS OF THE NON-EQUIVALENT ATOMS

 N = NUMBER OF NEIGHBORS AT DISTANCE R
    ATOM  N     R/ANG      R/AU   NEIGHBORS (ATOM LABELS AND CELL INDICES)
   1 C    2     1.4192     2.6819   2 C    0 0 0  14 C    0 0 0
   1 C    1     1.4261     2.6949  24 C    0 0 0
   1 C    2     2.4070     4.5486  13 C    0 0 0  21 C    0 0 0
   1 C    4     2.4660     4.6602  11 C    0 0 0  11 C    1 0 0  23 C    1 0 0
                                   23 C    0 0 0
   1 C    2     2.7977     5.2869   4 C    0 0 0  12 C    0 0 0
   1 C    1     2.8521     5.3897  24 C    1 0 0

   2 C    2     1.4192     2.6819   1 C    0 0 0  21 C    0 0 0
   2 C    1     1.4261     2.6949  11 C    1 0 0
   2 C    2     2.4070     4.5486  14 C    0 0 0  22 C    0 0 0
   2 C    4     2.4660     4.6602  12 C    1 0 0  12 C    0 0 0  24 C    0 0 0
                                   24 C    1 0 0
   2 C    2     2.7977     5.2869  23 C    1 0 0  31 C    1 0 0
   2 C    1     2.8521     5.3897  11 C    0 0 0


 SYMMETRY ALLOWED ELASTIC DISTORTION 1
  1.0000000

 SYMMETRY ALLOWED INTERNAL DEGREE(S) OF FREEDOM:   4
 TTTTTTTTTTTTTTTTTTTTTTTTTTTTTT SYMM        TELAPSE        0.11 TCPU        0.11
 TTTTTTTTTTTTTTTTTTTTTTTTTTTTTT INT_SCREEN  TELAPSE        0.11 TCPU        0.11
 *******************************************************************************
 COORDINATE AND CELL OPTIMIZATION - POINT    1
 INFORMATION **** EXCBUF **** EXCH. BIPO BUFFER: WORDS USED =           0

 DFT PARAMETERS

     ATOM       ELECTRONS   NET CHARGE   R(ANGSTROM)
   1   6  C       6.0000      0.0000     0.77000000

 SIZE OF GRID=      64476
 TTTTTTTTTTTTTTTTTTTTTTTTTTTTTT MAKEGRID    TELAPSE        2.23 TCPU        2.23
 BECKE WEIGHT FUNCTION
 RADSAFE =     2.00
 TOLERANCES - DENSITY:10**- 6; POTENTIAL:10**- 9; GRID WGT:10**-14

 RADIAL INTEGRATION  - INTERVALS (POINTS,UPPER LIMIT):            1( 75,  4.0*R)

 ANGULAR INTEGRATION - INTERVALS (ACCURACY LEVEL [N. POINTS] UPPER LIMIT):
  1(  4[  86]   0.2)  2(  8[ 194]   0.5)  3( 12[ 350]   0.9)  4( 16[ 974]   3.5)
  5( 12[ 350]9999.0)
 TTTTTTTTTTTTTTTTTTTTTTTTTTTTTT INT_CALC    TELAPSE        2.24 TCPU        2.23

 *******************************************************************************
 TEST05 - zigzag C NANOTUBE - 6-21G, PBE, optimization                           
 CRYSTAL - SCF - TYPE OF CALCULATION :  RESTRICTED CLOSED SHELL
 *******************************************************************************

 CAPPA:IS1 10;IS2  1;IS3  1; K PTS MONK NET    6; SYMMOPS: K SPACE 32;G SPACE 16

 TTTTTTTTTTTTTTTTTTTTTTTTTTTTTT SDIK        TELAPSE        2.44 TCPU        2.44

 AAAAAAAAAAAAAAAAAAAAAAAAAAAAAAAAAAAAAAAAAAAAAAAAAAAAAAAAAAAAAAAAAAAAAAAAAAAAAAA
         ATOMIC WAVEFUNCTION(S)


 NUCLEAR CHARGE  6.0  SYMMETRY SPECIES            S    P
 N. ELECTRONS    6.0  NUMBER OF PRIMITIVE GTOS    9    3
                      NUMBER OF CONTRACTED GTOS   3    2
                      NUMBER OF CLOSED SHELLS     2    0
                      OPEN SHELL OCCUPATION       0    2

  ZNUC SCFIT  TOTAL HF ENERGY   KINETIC ENERGY   VIRIAL THEOREM ACCURACY
   6.0   9   -3.765831823E+01  3.765320062E+01 -2.000135914E+00  1.5E-06

 AAAAAAAAAAAAAAAAAAAAAAAAAAAAAAAAAAAAAAAAAAAAAAAAAAAAAAAAAAAAAAAAAAAAAAAAAAAAAAA

 CHARGE NORMALIZATION FACTOR   1.00000000
 TOTAL ATOMIC CHARGES:
   6.0000000   6.0000000   6.0000000   6.0000000   6.0000000   6.0000000
   6.0000000   6.0000000   6.0000000   6.0000000   6.0000000   6.0000000
   6.0000000   6.0000000   6.0000000   6.0000000   6.0000000   6.0000000
   6.0000000   6.0000000   6.0000000   6.0000000   6.0000000   6.0000000
   6.0000000   6.0000000   6.0000000   6.0000000   6.0000000   6.0000000
   6.0000000   6.0000000
 TTTTTTTTTTTTTTTTTTTTTTTTTTTTTT MOQGAD      TELAPSE        2.55 TCPU        2.54
 TTTTTTTTTTTTTTTTTTTTTTTTTTTTTT SHELLX      TELAPSE        4.70 TCPU        4.70
 TTTTTTTTTTTTTTTTTTTTTTTTTTTTTT MONMO3      TELAPSE        4.81 TCPU        4.81
 NUMERICALLY INTEGRATED DENSITY    191.9999534821
 TTTTTTTTTTTTTTTTTTTTTTTTTTTTTT NUMDFT      TELAPSE        7.64 TCPU        7.63
 CYC   0 ETOT(AU) -1.227614691986E+03 DETOT -1.23E+03 tst  0.00E+00 PX  1.00E+00
 TTTTTTTTTTTTTTTTTTTTTTTTTTTTTT FDIK        TELAPSE        7.75 TCPU        7.74
 INSULATING STATE - LEVEL SHIFTER    1.00 au
 TOP OF VALENCE BANDS -    BAND     96; K    1; EIG -2.3983629E-01 AU
 BOTTOM OF VIRTUAL BANDS - BAND     97; K    1; EIG -2.0716902E-01 AU
 TTTTTTTTTTTTTTTTTTTTTTTTTTTTTT PDIG        TELAPSE        7.89 TCPU        7.88
 CHARGE NORMALIZATION FACTOR   1.00000000
 TOTAL ATOMIC CHARGES:
   5.9999972   6.0000028   5.9999972   6.0000028   5.9999972   6.0000028
   5.9999972   6.0000028   5.9999972   6.0000028   5.9999972   6.0000028
   5.9999972   6.0000028   5.9999972   6.0000028   5.9999972   6.0000028
   5.9999972   6.0000028   5.9999972   6.0000028   5.9999972   6.0000028
   5.9999972   6.0000028   5.9999972   6.0000028   5.9999972   6.0000028
   5.9999972   6.0000028
 TTTTTTTTTTTTTTTTTTTTTTTTTTTTTT MOQGAD      TELAPSE        7.99 TCPU        7.99
 TTTTTTTTTTTTTTTTTTTTTTTTTTTTTT SHELLX      TELAPSE       10.36 TCPU       10.36
 TTTTTTTTTTTTTTTTTTTTTTTTTTTTTT MONMO3      TELAPSE       10.48 TCPU       10.47
 NUMERICALLY INTEGRATED DENSITY    191.9999317013
 TTTTTTTTTTTTTTTTTTTTTTTTTTTTTT NUMDFT      TELAPSE       18.19 TCPU       18.19
 CYC   1 ETOT(AU) -1.216825419473E+03 DETOT  1.08E+01 tst  0.00E+00 PX  1.00E+00
 TTTTTTTTTTTTTTTTTTTTTTTTTTTTTT FDIK        TELAPSE       18.29 TCPU       18.29
 INSULATING STATE - LEVEL SHIFTER    1.00 au
 TOP OF VALENCE BANDS -    BAND     96; K    1; EIG -1.1622438E+00 AU
 BOTTOM OF VIRTUAL BANDS - BAND     97; K    1; EIG -1.3705830E-01 AU
 TTTTTTTTTTTTTTTTTTTTTTTTTTTTTT PDIG        TELAPSE       18.43 TCPU       18.43
 CHARGE NORMALIZATION FACTOR   1.00000000
 TOTAL ATOMIC CHARGES:
   6.0000059   5.9999941   6.0000059   5.9999941   6.0000059   5.9999941
   6.0000059   5.9999941   6.0000059   5.9999941   6.0000059   5.9999941
   6.0000059   5.9999941   6.0000059   5.9999941   6.0000059   5.9999941
   6.0000059   5.9999941   6.0000059   5.9999941   6.0000059   5.9999941
   6.0000059   5.9999941   6.0000059   5.9999941   6.0000059   5.9999941
   6.0000059   5.9999941
 TTTTTTTTTTTTTTTTTTTTTTTTTTTTTT MOQGAD      TELAPSE       18.54 TCPU       18.53
 TTTTTTTTTTTTTTTTTTTTTTTTTTTTTT SHELLX      TELAPSE       20.90 TCPU       20.89
 TTTTTTTTTTTTTTTTTTTTTTTTTTTTTT MONMO3      TELAPSE       21.01 TCPU       21.01
 NUMERICALLY INTEGRATED DENSITY    191.9999246016
 TTTTTTTTTTTTTTTTTTTTTTTTTTTTTT NUMDFT      TELAPSE       28.71 TCPU       28.71
 CYC   2 ETOT(AU) -1.216931269034E+03 DETOT -1.06E-01 tst  1.05E-03 PX  1.96E-02
 TTTTTTTTTTTTTTTTTTTTTTTTTTTTTT FDIK        TELAPSE       28.81 TCPU       28.80
 INSULATING STATE - LEVEL SHIFTER    1.00 au
 TOP OF VALENCE BANDS -    BAND     96; K    1; EIG -1.1592085E+00 AU
 BOTTOM OF VIRTUAL BANDS - BAND     97; K    1; EIG -1.3393610E-01 AU
 TTTTTTTTTTTTTTTTTTTTTTTTTTTTTT PDIG        TELAPSE       28.94 TCPU       28.94
 CHARGE NORMALIZATION FACTOR   1.00000000
 TOTAL ATOMIC CHARGES:
   5.9999981   6.0000019   5.9999981   6.0000019   5.9999981   6.0000019
   5.9999981   6.0000019   5.9999981   6.0000019   5.9999981   6.0000019
   5.9999981   6.0000019   5.9999981   6.0000019   5.9999981   6.0000019
   5.9999981   6.0000019   5.9999981   6.0000019   5.9999981   6.0000019
   5.9999981   6.0000019   5.9999981   6.0000019   5.9999981   6.0000019
   5.9999981   6.0000019
 TTTTTTTTTTTTTTTTTTTTTTTTTTTTTT MOQGAD      TELAPSE       29.04 TCPU       29.04
 TTTTTTTTTTTTTTTTTTTTTTTTTTTTTT SHELLX      TELAPSE       31.41 TCPU       31.41
 TTTTTTTTTTTTTTTTTTTTTTTTTTTTTT MONMO3      TELAPSE       31.53 TCPU       31.52
 NUMERICALLY INTEGRATED DENSITY    191.9999204297
 TTTTTTTTTTTTTTTTTTTTTTTTTTTTTT NUMDFT      TELAPSE       39.23 TCPU       39.23
 CYC   3 ETOT(AU) -1.216954636743E+03 DETOT -2.34E-02 tst  4.05E-04 PX  1.18E-02
 TTTTTTTTTTTTTTTTTTTTTTTTTTTTTT FDIK        TELAPSE       39.33 TCPU       39.32
 INSULATING STATE - LEVEL SHIFTER    1.00 au
 TOP OF VALENCE BANDS -    BAND     96; K    1; EIG -1.1692872E+00 AU
 BOTTOM OF VIRTUAL BANDS - BAND     97; K    1; EIG -1.4289271E-01 AU
 TTTTTTTTTTTTTTTTTTTTTTTTTTTTTT PDIG        TELAPSE       39.46 TCPU       39.46
 CHARGE NORMALIZATION FACTOR   1.00000000
 TOTAL ATOMIC CHARGES:
   6.0000006   5.9999994   6.0000006   5.9999994   6.0000006   5.9999994
   6.0000006   5.9999994   6.0000006   5.9999994   6.0000006   5.9999994
   6.0000006   5.9999994   6.0000006   5.9999994   6.0000006   5.9999994
   6.0000006   5.9999994   6.0000006   5.9999994   6.0000006   5.9999994
   6.0000006   5.9999994   6.0000006   5.9999994   6.0000006   5.9999994
   6.0000006   5.9999994
 TTTTTTTTTTTTTTTTTTTTTTTTTTTTTT MOQGAD      TELAPSE       39.57 TCPU       39.57
 TTTTTTTTTTTTTTTTTTTTTTTTTTTTTT SHELLX      TELAPSE       41.94 TCPU       41.94
 TTTTTTTTTTTTTTTTTTTTTTTTTTTTTT MONMO3      TELAPSE       42.06 TCPU       42.05
 NUMERICALLY INTEGRATED DENSITY    191.9999191032
 TTTTTTTTTTTTTTTTTTTTTTTTTTTTTT NUMDFT      TELAPSE       49.73 TCPU       49.73
 CYC   4 ETOT(AU) -1.216957020081E+03 DETOT -2.38E-03 tst  6.85E-05 PX  4.58E-03
 TTTTTTTTTTTTTTTTTTTTTTTTTTTTTT FDIK        TELAPSE       49.83 TCPU       49.83
 INSULATING STATE - LEVEL SHIFTER    1.00 au
 TOP OF VALENCE BANDS -    BAND     96; K    1; EIG -1.1756544E+00 AU
 BOTTOM OF VIRTUAL BANDS - BAND     97; K    1; EIG -1.4867595E-01 AU
 TTTTTTTTTTTTTTTTTTTTTTTTTTTTTT PDIG        TELAPSE       49.96 TCPU       49.96
 CHARGE NORMALIZATION FACTOR   1.00000000
 TOTAL ATOMIC CHARGES:
   5.9999980   6.0000020   5.9999980   6.0000020   5.9999980   6.0000020
   5.9999980   6.0000020   5.9999980   6.0000020   5.9999980   6.0000020
   5.9999980   6.0000020   5.9999980   6.0000020   5.9999980   6.0000020
   5.9999980   6.0000020   5.9999980   6.0000020   5.9999980   6.0000020
   5.9999980   6.0000020   5.9999980   6.0000020   5.9999980   6.0000020
   5.9999980   6.0000020
 TTTTTTTTTTTTTTTTTTTTTTTTTTTTTT MOQGAD      TELAPSE       50.06 TCPU       50.06
 TTTTTTTTTTTTTTTTTTTTTTTTTTTTTT SHELLX      TELAPSE       52.43 TCPU       52.43
 TTTTTTTTTTTTTTTTTTTTTTTTTTTTTT MONMO3      TELAPSE       52.55 TCPU       52.54
 NUMERICALLY INTEGRATED DENSITY    191.9999189430
 TTTTTTTTTTTTTTTTTTTTTTTTTTTTTT NUMDFT      TELAPSE       60.25 TCPU       60.24
 CYC   5 ETOT(AU) -1.216957295490E+03 DETOT -2.75E-04 tst  1.56E-05 PX  2.99E-03
 TTTTTTTTTTTTTTTTTTTTTTTTTTTTTT FDIK        TELAPSE       60.35 TCPU       60.34
 INSULATING STATE - LEVEL SHIFTER    1.00 au
 TOP OF VALENCE BANDS -    BAND     96; K    1; EIG -1.1779558E+00 AU
 BOTTOM OF VIRTUAL BANDS - BAND     97; K    1; EIG -1.5080984E-01 AU
 TTTTTTTTTTTTTTTTTTTTTTTTTTTTTT PDIG        TELAPSE       60.47 TCPU       60.47
 CHARGE NORMALIZATION FACTOR   1.00000000
 TOTAL ATOMIC CHARGES:
   5.9999977   6.0000023   5.9999977   6.0000023   5.9999977   6.0000023
   5.9999977   6.0000023   5.9999977   6.0000023   5.9999977   6.0000023
   5.9999977   6.0000023   5.9999977   6.0000023   5.9999977   6.0000023
   5.9999977   6.0000023   5.9999977   6.0000023   5.9999977   6.0000023
   5.9999977   6.0000023   5.9999977   6.0000023   5.9999977   6.0000023
   5.9999977   6.0000023
 TTTTTTTTTTTTTTTTTTTTTTTTTTTTTT MOQGAD      TELAPSE       60.58 TCPU       60.58
 TTTTTTTTTTTTTTTTTTTTTTTTTTTTTT SHELLX      TELAPSE       62.94 TCPU       62.94
 TTTTTTTTTTTTTTTTTTTTTTTTTTTTTT MONMO3      TELAPSE       63.06 TCPU       63.06
 NUMERICALLY INTEGRATED DENSITY    191.9999190268
 TTTTTTTTTTTTTTTTTTTTTTTTTTTTTT NUMDFT      TELAPSE       70.76 TCPU       70.75
 CYC   6 ETOT(AU) -1.216957378461E+03 DETOT -8.30E-05 tst  7.00E-06 PX  1.63E-03
 TTTTTTTTTTTTTTTTTTTTTTTTTTTTTT FDIK        TELAPSE       70.85 TCPU       70.85
 INSULATING STATE - LEVEL SHIFTER    1.00 au
 TOP OF VALENCE BANDS -    BAND     96; K    1; EIG -1.1784481E+00 AU
 BOTTOM OF VIRTUAL BANDS - BAND     97; K    1; EIG -1.5129105E-01 AU
 TTTTTTTTTTTTTTTTTTTTTTTTTTTTTT PDIG        TELAPSE       70.99 TCPU       70.99
 CHARGE NORMALIZATION FACTOR   1.00000000
 TOTAL ATOMIC CHARGES:
   5.9999983   6.0000017   5.9999983   6.0000017   5.9999983   6.0000017
   5.9999983   6.0000017   5.9999983   6.0000017   5.9999983   6.0000017
   5.9999983   6.0000017   5.9999983   6.0000017   5.9999983   6.0000017
   5.9999983   6.0000017   5.9999983   6.0000017   5.9999983   6.0000017
   5.9999983   6.0000017   5.9999983   6.0000017   5.9999983   6.0000017
   5.9999983   6.0000017
 TTTTTTTTTTTTTTTTTTTTTTTTTTTTTT MOQGAD      TELAPSE       71.10 TCPU       71.09
 TTTTTTTTTTTTTTTTTTTTTTTTTTTTTT SHELLX      TELAPSE       73.47 TCPU       73.47
 TTTTTTTTTTTTTTTTTTTTTTTTTTTTTT MONMO3      TELAPSE       73.58 TCPU       73.58
 NUMERICALLY INTEGRATED DENSITY    191.9999190894
 TTTTTTTTTTTTTTTTTTTTTTTTTTTTTT NUMDFT      TELAPSE       81.27 TCPU       81.27
 CYC   7 ETOT(AU) -1.216957406808E+03 DETOT -2.83E-05 tst  3.71E-06 PX  7.47E-04
 TTTTTTTTTTTTTTTTTTTTTTTTTTTTTT FDIK        TELAPSE       81.36 TCPU       81.37
 INSULATING STATE - LEVEL SHIFTER    1.00 au
 TOP OF VALENCE BANDS -    BAND     96; K    1; EIG -1.1784610E+00 AU
 BOTTOM OF VIRTUAL BANDS - BAND     97; K    1; EIG -1.5131947E-01 AU
 TTTTTTTTTTTTTTTTTTTTTTTTTTTTTT PDIG        TELAPSE       81.51 TCPU       81.51
 CHARGE NORMALIZATION FACTOR   1.00000000
 TOTAL ATOMIC CHARGES:
   5.9999972   6.0000028   5.9999972   6.0000028   5.9999972   6.0000028
   5.9999972   6.0000028   5.9999972   6.0000028   5.9999972   6.0000028
   5.9999972   6.0000028   5.9999972   6.0000028   5.9999972   6.0000028
   5.9999972   6.0000028   5.9999972   6.0000028   5.9999972   6.0000028
   5.9999972   6.0000028   5.9999972   6.0000028   5.9999972   6.0000028
   5.9999972   6.0000028
 TTTTTTTTTTTTTTTTTTTTTTTTTTTTTT MOQGAD      TELAPSE       81.61 TCPU       81.61
 TTTTTTTTTTTTTTTTTTTTTTTTTTTTTT SHELLX      TELAPSE       83.98 TCPU       83.98
 TTTTTTTTTTTTTTTTTTTTTTTTTTTTTT MONMO3      TELAPSE       84.10 TCPU       84.09
 NUMERICALLY INTEGRATED DENSITY    191.9999191111
 TTTTTTTTTTTTTTTTTTTTTTTTTTTTTT NUMDFT      TELAPSE       91.78 TCPU       91.78
 CYC   8 ETOT(AU) -1.216957417521E+03 DETOT -1.07E-05 tst  2.10E-06 PX  3.36E-04
 TTTTTTTTTTTTTTTTTTTTTTTTTTTTTT FDIK        TELAPSE       91.88 TCPU       91.88
 INSULATING STATE - LEVEL SHIFTER    1.00 au
 TOP OF VALENCE BANDS -    BAND     96; K    1; EIG -1.1784322E+00 AU
 BOTTOM OF VIRTUAL BANDS - BAND     97; K    1; EIG -1.5129849E-01 AU
 TTTTTTTTTTTTTTTTTTTTTTTTTTTTTT PDIG        TELAPSE       92.01 TCPU       92.01
 CHARGE NORMALIZATION FACTOR   1.00000000
 TOTAL ATOMIC CHARGES:
   5.9999977   6.0000023   5.9999977   6.0000023   5.9999977   6.0000023
   5.9999977   6.0000023   5.9999977   6.0000023   5.9999977   6.0000023
   5.9999977   6.0000023   5.9999977   6.0000023   5.9999977   6.0000023
   5.9999977   6.0000023   5.9999977   6.0000023   5.9999977   6.0000023
   5.9999977   6.0000023   5.9999977   6.0000023   5.9999977   6.0000023
   5.9999977   6.0000023
 TTTTTTTTTTTTTTTTTTTTTTTTTTTTTT MOQGAD      TELAPSE       92.12 TCPU       92.12
 TTTTTTTTTTTTTTTTTTTTTTTTTTTTTT SHELLX      TELAPSE       94.48 TCPU       94.48
 TTTTTTTTTTTTTTTTTTTTTTTTTTTTTT MONMO3      TELAPSE       94.60 TCPU       94.60
 NUMERICALLY INTEGRATED DENSITY    191.9999191149
 TTTTTTTTTTTTTTTTTTTTTTTTTTTTTT NUMDFT      TELAPSE      102.28 TCPU      102.28
 CYC   9 ETOT(AU) -1.216957422275E+03 DETOT -4.75E-06 tst  1.35E-06 PX  1.70E-04
 TTTTTTTTTTTTTTTTTTTTTTTTTTTTTT FDIK        TELAPSE      102.38 TCPU      102.37
 INSULATING STATE - LEVEL SHIFTER    1.00 au
 TOP OF VALENCE BANDS -    BAND     96; K    1; EIG -1.1784308E+00 AU
 BOTTOM OF VIRTUAL BANDS - BAND     97; K    1; EIG -1.5129754E-01 AU
 TTTTTTTTTTTTTTTTTTTTTTTTTTTTTT PDIG        TELAPSE      102.50 TCPU      102.50
 CHARGE NORMALIZATION FACTOR   1.00000000
 TOTAL ATOMIC CHARGES:
   5.9999980   6.0000020   5.9999980   6.0000020   5.9999980   6.0000020
   5.9999980   6.0000020   5.9999980   6.0000020   5.9999980   6.0000020
   5.9999980   6.0000020   5.9999980   6.0000020   5.9999980   6.0000020
   5.9999980   6.0000020   5.9999980   6.0000020   5.9999980   6.0000020
   5.9999980   6.0000020   5.9999980   6.0000020   5.9999980   6.0000020
   5.9999980   6.0000020
 TTTTTTTTTTTTTTTTTTTTTTTTTTTTTT MOQGAD      TELAPSE      102.61 TCPU      102.61
 TTTTTTTTTTTTTTTTTTTTTTTTTTTTTT SHELLX      TELAPSE      104.99 TCPU      104.99
 TTTTTTTTTTTTTTTTTTTTTTTTTTTTTT MONMO3      TELAPSE      105.11 TCPU      105.10
 NUMERICALLY INTEGRATED DENSITY    191.9999191150
 TTTTTTTTTTTTTTTTTTTTTTTTTTTTTT NUMDFT      TELAPSE      112.78 TCPU      112.78
 CYC  10 ETOT(AU) -1.216957424450E+03 DETOT -2.18E-06 tst  1.04E-06 PX  1.07E-04
 TTTTTTTTTTTTTTTTTTTTTTTTTTTTTT FDIK        TELAPSE      112.89 TCPU      112.88
 INSULATING STATE - LEVEL SHIFTER    1.00 au
 TOP OF VALENCE BANDS -    BAND     96; K    1; EIG -1.1784421E+00 AU
 BOTTOM OF VIRTUAL BANDS - BAND     97; K    1; EIG -1.5130699E-01 AU
 TTTTTTTTTTTTTTTTTTTTTTTTTTTTTT PDIG        TELAPSE      113.02 TCPU      113.02
 CHARGE NORMALIZATION FACTOR   1.00000000
 TOTAL ATOMIC CHARGES:
   5.9999982   6.0000018   5.9999982   6.0000018   5.9999982   6.0000018
   5.9999982   6.0000018   5.9999982   6.0000018   5.9999982   6.0000018
   5.9999982   6.0000018   5.9999982   6.0000018   5.9999982   6.0000018
   5.9999982   6.0000018   5.9999982   6.0000018   5.9999982   6.0000018
   5.9999982   6.0000018   5.9999982   6.0000018   5.9999982   6.0000018
   5.9999982   6.0000018
 TTTTTTTTTTTTTTTTTTTTTTTTTTTTTT MOQGAD      TELAPSE      113.13 TCPU      113.13
 TTTTTTTTTTTTTTTTTTTTTTTTTTTTTT SHELLX      TELAPSE      115.49 TCPU      115.49
 TTTTTTTTTTTTTTTTTTTTTTTTTTTTTT MONMO3      TELAPSE      115.60 TCPU      115.60
 NUMERICALLY INTEGRATED DENSITY    191.9999191153
 TTTTTTTTTTTTTTTTTTTTTTTTTTTTTT NUMDFT      TELAPSE      123.35 TCPU      123.34
 CYC  11 ETOT(AU) -1.216957425520E+03 DETOT -1.07E-06 tst  7.99E-07 PX  7.14E-05
 TTTTTTTTTTTTTTTTTTTTTTTTTTTTTT FDIK        TELAPSE      123.44 TCPU      123.44
 INSULATING STATE - LEVEL SHIFTER    1.00 au
 TOP OF VALENCE BANDS -    BAND     96; K    1; EIG -1.1784529E+00 AU
 BOTTOM OF VIRTUAL BANDS - BAND     97; K    1; EIG -1.5131605E-01 AU
 TTTTTTTTTTTTTTTTTTTTTTTTTTTTTT PDIG        TELAPSE      123.57 TCPU      123.57
 CHARGE NORMALIZATION FACTOR   1.00000000
 TOTAL ATOMIC CHARGES:
   5.9999981   6.0000019   5.9999981   6.0000019   5.9999981   6.0000019
   5.9999981   6.0000019   5.9999981   6.0000019   5.9999981   6.0000019
   5.9999981   6.0000019   5.9999981   6.0000019   5.9999981   6.0000019
   5.9999981   6.0000019   5.9999981   6.0000019   5.9999981   6.0000019
   5.9999981   6.0000019   5.9999981   6.0000019   5.9999981   6.0000019
   5.9999981   6.0000019
 TTTTTTTTTTTTTTTTTTTTTTTTTTTTTT MOQGAD      TELAPSE      123.68 TCPU      123.68
 TTTTTTTTTTTTTTTTTTTTTTTTTTTTTT SHELLX      TELAPSE      126.07 TCPU      126.07
 TTTTTTTTTTTTTTTTTTTTTTTTTTTTTT MONMO3      TELAPSE      126.19 TCPU      126.19
 NUMERICALLY INTEGRATED DENSITY    191.9999191159
 TTTTTTTTTTTTTTTTTTTTTTTTTTTTTT NUMDFT      TELAPSE      134.24 TCPU      134.24
 CYC  12 ETOT(AU) -1.216957426071E+03 DETOT -5.51E-07 tst  6.15E-07 PX  4.41E-05
 TTTTTTTTTTTTTTTTTTTTTTTTTTTTTT FDIK        TELAPSE      134.35 TCPU      134.35
 INSULATING STATE - LEVEL SHIFTER    1.00 au
 TOP OF VALENCE BANDS -    BAND     96; K    1; EIG -1.1784598E+00 AU
 BOTTOM OF VIRTUAL BANDS - BAND     97; K    1; EIG -1.5132198E-01 AU
 TTTTTTTTTTTTTTTTTTTTTTTTTTTTTT PDIG        TELAPSE      134.48 TCPU      134.48
 CHARGE NORMALIZATION FACTOR   1.00000000
 TOTAL ATOMIC CHARGES:
   5.9999974   6.0000026   5.9999974   6.0000026   5.9999974   6.0000026
   5.9999974   6.0000026   5.9999974   6.0000026   5.9999974   6.0000026
   5.9999974   6.0000026   5.9999974   6.0000026   5.9999974   6.0000026
   5.9999974   6.0000026   5.9999974   6.0000026   5.9999974   6.0000026
   5.9999974   6.0000026   5.9999974   6.0000026   5.9999974   6.0000026
   5.9999974   6.0000026
 TTTTTTTTTTTTTTTTTTTTTTTTTTTTTT MOQGAD      TELAPSE      134.59 TCPU      134.59
 TTTTTTTTTTTTTTTTTTTTTTTTTTTTTT SHELLX      TELAPSE      136.94 TCPU      136.94
 TTTTTTTTTTTTTTTTTTTTTTTTTTTTTT MONMO3      TELAPSE      137.06 TCPU      137.06
 NUMERICALLY INTEGRATED DENSITY    191.9999191166
 TTTTTTTTTTTTTTTTTTTTTTTTTTTTTT NUMDFT      TELAPSE      145.04 TCPU      145.04
 CYC  13 ETOT(AU) -1.216957426414E+03 DETOT -3.43E-07 tst  4.73E-07 PX  2.86E-05
 TTTTTTTTTTTTTTTTTTTTTTTTTTTTTT FDIK        TELAPSE      145.15 TCPU      145.15
 INSULATING STATE - LEVEL SHIFTER    1.00 au
 TOP OF VALENCE BANDS -    BAND     96; K    1; EIG -1.1784640E+00 AU
 BOTTOM OF VIRTUAL BANDS - BAND     97; K    1; EIG -1.5132551E-01 AU
 TTTTTTTTTTTTTTTTTTTTTTTTTTTTTT PDIG        TELAPSE      145.28 TCPU      145.29
 CHARGE NORMALIZATION FACTOR   1.00000000
 TOTAL ATOMIC CHARGES:
   5.9999978   6.0000022   5.9999978   6.0000022   5.9999978   6.0000022
   5.9999978   6.0000022   5.9999978   6.0000022   5.9999978   6.0000022
   5.9999978   6.0000022   5.9999978   6.0000022   5.9999978   6.0000022
   5.9999978   6.0000022   5.9999978   6.0000022   5.9999978   6.0000022
   5.9999978   6.0000022   5.9999978   6.0000022   5.9999978   6.0000022
   5.9999978   6.0000022
 TTTTTTTTTTTTTTTTTTTTTTTTTTTTTT MOQGAD      TELAPSE      145.39 TCPU      145.39
 TTTTTTTTTTTTTTTTTTTTTTTTTTTTTT SHELLX      TELAPSE      147.74 TCPU      147.74
 TTTTTTTTTTTTTTTTTTTTTTTTTTTTTT MONMO3      TELAPSE      147.85 TCPU      147.85
 NUMERICALLY INTEGRATED DENSITY    191.9999191170
 TTTTTTTTTTTTTTTTTTTTTTTTTTTTTT NUMDFT      TELAPSE      155.81 TCPU      155.81
 CYC  14 ETOT(AU) -1.216957426684E+03 DETOT -2.69E-07 tst  3.68E-07 PX  2.36E-05
 TTTTTTTTTTTTTTTTTTTTTTTTTTTTTT FDIK        TELAPSE      155.91 TCPU      155.91
 INSULATING STATE - LEVEL SHIFTER    1.00 au
 TOP OF VALENCE BANDS -    BAND     96; K    1; EIG -1.1784666E+00 AU
 BOTTOM OF VIRTUAL BANDS - BAND     97; K    1; EIG -1.5132781E-01 AU
 TTTTTTTTTTTTTTTTTTTTTTTTTTTTTT PDIG        TELAPSE      156.04 TCPU      156.05
 CHARGE NORMALIZATION FACTOR   1.00000000
 TOTAL ATOMIC CHARGES:
   5.9999979   6.0000021   5.9999979   6.0000021   5.9999979   6.0000021
   5.9999979   6.0000021   5.9999979   6.0000021   5.9999979   6.0000021
   5.9999979   6.0000021   5.9999979   6.0000021   5.9999979   6.0000021
   5.9999979   6.0000021   5.9999979   6.0000021   5.9999979   6.0000021
   5.9999979   6.0000021   5.9999979   6.0000021   5.9999979   6.0000021
   5.9999979   6.0000021
 TTTTTTTTTTTTTTTTTTTTTTTTTTTTTT MOQGAD      TELAPSE      156.15 TCPU      156.15
 TTTTTTTTTTTTTTTTTTTTTTTTTTTTTT SHELLX      TELAPSE      158.50 TCPU      158.50
 TTTTTTTTTTTTTTTTTTTTTTTTTTTTTT MONMO3      TELAPSE      158.61 TCPU      158.61
 NUMERICALLY INTEGRATED DENSITY    191.9999191174
 TTTTTTTTTTTTTTTTTTTTTTTTTTTTTT NUMDFT      TELAPSE      166.57 TCPU      166.57
 CYC  15 ETOT(AU) -1.216957426895E+03 DETOT -2.11E-07 tst  3.01E-07 PX  1.97E-05
 TTTTTTTTTTTTTTTTTTTTTTTTTTTTTT FDIK        TELAPSE      166.67 TCPU      166.67
 INSULATING STATE - LEVEL SHIFTER    1.00 au
 TOP OF VALENCE BANDS -    BAND     96; K    1; EIG -1.1784684E+00 AU
 BOTTOM OF VIRTUAL BANDS - BAND     97; K    1; EIG -1.5132934E-01 AU
 TTTTTTTTTTTTTTTTTTTTTTTTTTTTTT PDIG        TELAPSE      166.82 TCPU      166.82
 CHARGE NORMALIZATION FACTOR   1.00000000
 TOTAL ATOMIC CHARGES:
   5.9999977   6.0000023   5.9999977   6.0000023   5.9999977   6.0000023
   5.9999977   6.0000023   5.9999977   6.0000023   5.9999977   6.0000023
   5.9999977   6.0000023   5.9999977   6.0000023   5.9999977   6.0000023
   5.9999977   6.0000023   5.9999977   6.0000023   5.9999977   6.0000023
   5.9999977   6.0000023   5.9999977   6.0000023   5.9999977   6.0000023
   5.9999977   6.0000023
 TTTTTTTTTTTTTTTTTTTTTTTTTTTTTT MOQGAD      TELAPSE      166.93 TCPU      166.93
 TTTTTTTTTTTTTTTTTTTTTTTTTTTTTT SHELLX      TELAPSE      169.29 TCPU      169.29
 TTTTTTTTTTTTTTTTTTTTTTTTTTTTTT MONMO3      TELAPSE      169.40 TCPU      169.41
 NUMERICALLY INTEGRATED DENSITY    191.9999191177
 TTTTTTTTTTTTTTTTTTTTTTTTTTTTTT NUMDFT      TELAPSE      177.35 TCPU      177.35
 CYC  16 ETOT(AU) -1.216957427089E+03 DETOT -1.94E-07 tst  2.47E-07 PX  1.66E-05
 TTTTTTTTTTTTTTTTTTTTTTTTTTTTTT FDIK        TELAPSE      177.44 TCPU      177.45
 INSULATING STATE - LEVEL SHIFTER    1.00 au
 TOP OF VALENCE BANDS -    BAND     96; K    1; EIG -1.1784696E+00 AU
 BOTTOM OF VIRTUAL BANDS - BAND     97; K    1; EIG -1.5133039E-01 AU
 TTTTTTTTTTTTTTTTTTTTTTTTTTTTTT PDIG        TELAPSE      177.58 TCPU      177.58
 CHARGE NORMALIZATION FACTOR   1.00000000
 TOTAL ATOMIC CHARGES:
   5.9999978   6.0000022   5.9999978   6.0000022   5.9999978   6.0000022
   5.9999978   6.0000022   5.9999978   6.0000022   5.9999978   6.0000022
   5.9999978   6.0000022   5.9999978   6.0000022   5.9999978   6.0000022
   5.9999978   6.0000022   5.9999978   6.0000022   5.9999978   6.0000022
   5.9999978   6.0000022   5.9999978   6.0000022   5.9999978   6.0000022
   5.9999978   6.0000022
 TTTTTTTTTTTTTTTTTTTTTTTTTTTTTT MOQGAD      TELAPSE      177.69 TCPU      177.69
 TTTTTTTTTTTTTTTTTTTTTTTTTTTTTT SHELLX      TELAPSE      180.02 TCPU      180.02
 TTTTTTTTTTTTTTTTTTTTTTTTTTTTTT MONMO3      TELAPSE      180.13 TCPU      180.14
 NUMERICALLY INTEGRATED DENSITY    191.9999191180
 TTTTTTTTTTTTTTTTTTTTTTTTTTTTTT NUMDFT      TELAPSE      188.12 TCPU      188.12
 CYC  17 ETOT(AU) -1.216957427260E+03 DETOT -1.71E-07 tst  2.02E-07 PX  1.40E-05
 TTTTTTTTTTTTTTTTTTTTTTTTTTTTTT FDIK        TELAPSE      188.22 TCPU      188.22
 INSULATING STATE - LEVEL SHIFTER    1.00 au
 TOP OF VALENCE BANDS -    BAND     96; K    1; EIG -1.1784706E+00 AU
 BOTTOM OF VIRTUAL BANDS - BAND     97; K    1; EIG -1.5133118E-01 AU
 TTTTTTTTTTTTTTTTTTTTTTTTTTTTTT PDIG        TELAPSE      188.35 TCPU      188.36
 CHARGE NORMALIZATION FACTOR   1.00000000
 TOTAL ATOMIC CHARGES:
   5.9999978   6.0000022   5.9999978   6.0000022   5.9999978   6.0000022
   5.9999978   6.0000022   5.9999978   6.0000022   5.9999978   6.0000022
   5.9999978   6.0000022   5.9999978   6.0000022   5.9999978   6.0000022
   5.9999978   6.0000022   5.9999978   6.0000022   5.9999978   6.0000022
   5.9999978   6.0000022   5.9999978   6.0000022   5.9999978   6.0000022
   5.9999978   6.0000022
 TTTTTTTTTTTTTTTTTTTTTTTTTTTTTT MOQGAD      TELAPSE      188.46 TCPU      188.46
 TTTTTTTTTTTTTTTTTTTTTTTTTTTTTT SHELLX      TELAPSE      190.80 TCPU      190.80
 TTTTTTTTTTTTTTTTTTTTTTTTTTTTTT MONMO3      TELAPSE      190.92 TCPU      190.92
 NUMERICALLY INTEGRATED DENSITY    191.9999191183
 TTTTTTTTTTTTTTTTTTTTTTTTTTTTTT NUMDFT      TELAPSE      198.92 TCPU      198.92
 CYC  18 ETOT(AU) -1.216957427417E+03 DETOT -1.57E-07 tst  1.70E-07 PX  1.20E-05
 TTTTTTTTTTTTTTTTTTTTTTTTTTTTTT FDIK        TELAPSE      199.02 TCPU      199.02
 INSULATING STATE - LEVEL SHIFTER    1.00 au
 TOP OF VALENCE BANDS -    BAND     96; K    1; EIG -1.1784712E+00 AU
 BOTTOM OF VIRTUAL BANDS - BAND     97; K    1; EIG -1.5133174E-01 AU
 TTTTTTTTTTTTTTTTTTTTTTTTTTTTTT PDIG        TELAPSE      199.15 TCPU      199.15
 CHARGE NORMALIZATION FACTOR   1.00000000
 TOTAL ATOMIC CHARGES:
   5.9999978   6.0000022   5.9999978   6.0000022   5.9999978   6.0000022
   5.9999978   6.0000022   5.9999978   6.0000022   5.9999978   6.0000022
   5.9999978   6.0000022   5.9999978   6.0000022   5.9999978   6.0000022
   5.9999978   6.0000022   5.9999978   6.0000022   5.9999978   6.0000022
   5.9999978   6.0000022   5.9999978   6.0000022   5.9999978   6.0000022
   5.9999978   6.0000022
 TTTTTTTTTTTTTTTTTTTTTTTTTTTTTT MOQGAD      TELAPSE      199.25 TCPU      199.26
 TTTTTTTTTTTTTTTTTTTTTTTTTTTTTT SHELLX      TELAPSE      201.61 TCPU      201.62
 TTTTTTTTTTTTTTTTTTTTTTTTTTTTTT MONMO3      TELAPSE      201.73 TCPU      201.73
 NUMERICALLY INTEGRATED DENSITY    191.9999191186
 TTTTTTTTTTTTTTTTTTTTTTTTTTTTTT NUMDFT      TELAPSE      209.78 TCPU      209.79
 CYC  19 ETOT(AU) -1.216957427551E+03 DETOT -1.34E-07 tst  1.51E-07 PX  1.03E-05
 TTTTTTTTTTTTTTTTTTTTTTTTTTTTTT FDIK        TELAPSE      209.88 TCPU      209.88
 INSULATING STATE - LEVEL SHIFTER    1.00 au
 TOP OF VALENCE BANDS -    BAND     96; K    1; EIG -1.1784718E+00 AU
 BOTTOM OF VIRTUAL BANDS - BAND     97; K    1; EIG -1.5133222E-01 AU
 TTTTTTTTTTTTTTTTTTTTTTTTTTTTTT PDIG        TELAPSE      210.01 TCPU      210.01
 CHARGE NORMALIZATION FACTOR   1.00000000
 TOTAL ATOMIC CHARGES:
   5.9999978   6.0000022   5.9999978   6.0000022   5.9999978   6.0000022
   5.9999978   6.0000022   5.9999978   6.0000022   5.9999978   6.0000022
   5.9999978   6.0000022   5.9999978   6.0000022   5.9999978   6.0000022
   5.9999978   6.0000022   5.9999978   6.0000022   5.9999978   6.0000022
   5.9999978   6.0000022   5.9999978   6.0000022   5.9999978   6.0000022
   5.9999978   6.0000022
 TTTTTTTTTTTTTTTTTTTTTTTTTTTTTT MOQGAD      TELAPSE      210.11 TCPU      210.12
 TTTTTTTTTTTTTTTTTTTTTTTTTTTTTT SHELLX      TELAPSE      212.47 TCPU      212.47
 TTTTTTTTTTTTTTTTTTTTTTTTTTTTTT MONMO3      TELAPSE      212.59 TCPU      212.59
 NUMERICALLY INTEGRATED DENSITY    191.9999191189
 TTTTTTTTTTTTTTTTTTTTTTTTTTTTTT NUMDFT      TELAPSE      220.58 TCPU      220.58
 CYC  20 ETOT(AU) -1.216957427671E+03 DETOT -1.21E-07 tst  1.33E-07 PX  8.91E-06
 TTTTTTTTTTTTTTTTTTTTTTTTTTTTTT FDIK        TELAPSE      220.68 TCPU      220.68
 INSULATING STATE - LEVEL SHIFTER    1.00 au
 TOP OF VALENCE BANDS -    BAND     96; K    1; EIG -1.1784722E+00 AU
 BOTTOM OF VIRTUAL BANDS - BAND     97; K    1; EIG -1.5133254E-01 AU
 TTTTTTTTTTTTTTTTTTTTTTTTTTTTTT PDIG        TELAPSE      220.80 TCPU      220.81
 CHARGE NORMALIZATION FACTOR   1.00000000
 TOTAL ATOMIC CHARGES:
   5.9999978   6.0000022   5.9999978   6.0000022   5.9999978   6.0000022
   5.9999978   6.0000022   5.9999978   6.0000022   5.9999978   6.0000022
   5.9999978   6.0000022   5.9999978   6.0000022   5.9999978   6.0000022
   5.9999978   6.0000022   5.9999978   6.0000022   5.9999978   6.0000022
   5.9999978   6.0000022   5.9999978   6.0000022   5.9999978   6.0000022
   5.9999978   6.0000022
 TTTTTTTTTTTTTTTTTTTTTTTTTTTTTT MOQGAD      TELAPSE      220.91 TCPU      220.91
 TTTTTTTTTTTTTTTTTTTTTTTTTTTTTT SHELLX      TELAPSE      223.31 TCPU      223.31
 TTTTTTTTTTTTTTTTTTTTTTTTTTTTTT MONMO3      TELAPSE      223.43 TCPU      223.43
 NUMERICALLY INTEGRATED DENSITY    191.9999191192
 TTTTTTTTTTTTTTTTTTTTTTTTTTTTTT NUMDFT      TELAPSE      231.39 TCPU      231.39
 CYC  21 ETOT(AU) -1.216957427780E+03 DETOT -1.09E-07 tst  1.18E-07 PX  7.75E-06
 TTTTTTTTTTTTTTTTTTTTTTTTTTTTTT FDIK        TELAPSE      231.49 TCPU      231.49
 INSULATING STATE - LEVEL SHIFTER    1.00 au
 TOP OF VALENCE BANDS -    BAND     96; K    1; EIG -1.1784725E+00 AU
 BOTTOM OF VIRTUAL BANDS - BAND     97; K    1; EIG -1.5133279E-01 AU
 TTTTTTTTTTTTTTTTTTTTTTTTTTTTTT PDIG        TELAPSE      231.62 TCPU      231.62
 CHARGE NORMALIZATION FACTOR   1.00000000
 TOTAL ATOMIC CHARGES:
   5.9999978   6.0000022   5.9999978   6.0000022   5.9999978   6.0000022
   5.9999978   6.0000022   5.9999978   6.0000022   5.9999978   6.0000022
   5.9999978   6.0000022   5.9999978   6.0000022   5.9999978   6.0000022
   5.9999978   6.0000022   5.9999978   6.0000022   5.9999978   6.0000022
   5.9999978   6.0000022   5.9999978   6.0000022   5.9999978   6.0000022
   5.9999978   6.0000022
 TTTTTTTTTTTTTTTTTTTTTTTTTTTTTT MOQGAD      TELAPSE      231.73 TCPU      231.73
 TTTTTTTTTTTTTTTTTTTTTTTTTTTTTT SHELLX      TELAPSE      234.16 TCPU      234.16
 TTTTTTTTTTTTTTTTTTTTTTTTTTTTTT MONMO3      TELAPSE      234.27 TCPU      234.27
 NUMERICALLY INTEGRATED DENSITY    191.9999191194
 TTTTTTTTTTTTTTTTTTTTTTTTTTTTTT NUMDFT      TELAPSE      242.24 TCPU      242.24
 CYC  22 ETOT(AU) -1.216957427876E+03 DETOT -9.55E-08 tst  1.04E-07 PX  6.78E-06
 TTTTTTTTTTTTTTTTTTTTTTTTTTTTTT FDIK        TELAPSE      242.34 TCPU      242.34
 INSULATING STATE - LEVEL SHIFTER    1.00 au
 TOP OF VALENCE BANDS -    BAND     96; K    1; EIG -1.1784727E+00 AU
 BOTTOM OF VIRTUAL BANDS - BAND     97; K    1; EIG -1.5133296E-01 AU
 TTTTTTTTTTTTTTTTTTTTTTTTTTTTTT PDIG        TELAPSE      242.47 TCPU      242.48
 CHARGE NORMALIZATION FACTOR   1.00000000
 TOTAL ATOMIC CHARGES:
   5.9999978   6.0000022   5.9999978   6.0000022   5.9999978   6.0000022
   5.9999978   6.0000022   5.9999978   6.0000022   5.9999978   6.0000022
   5.9999978   6.0000022   5.9999978   6.0000022   5.9999978   6.0000022
   5.9999978   6.0000022   5.9999978   6.0000022   5.9999978   6.0000022
   5.9999978   6.0000022   5.9999978   6.0000022   5.9999978   6.0000022
   5.9999978   6.0000022
 TTTTTTTTTTTTTTTTTTTTTTTTTTTTTT MOQGAD      TELAPSE      242.58 TCPU      242.58
 TTTTTTTTTTTTTTTTTTTTTTTTTTTTTT SHELLX      TELAPSE      245.02 TCPU      245.02
 TTTTTTTTTTTTTTTTTTTTTTTTTTTTTT MONMO3      TELAPSE      245.13 TCPU      245.14
 NUMERICALLY INTEGRATED DENSITY    191.9999191197
 TTTTTTTTTTTTTTTTTTTTTTTTTTTTTT NUMDFT      TELAPSE      253.03 TCPU      253.03
 CYC  23 ETOT(AU) -1.216957427965E+03 DETOT -8.87E-08 tst  9.24E-08 PX  5.93E-06
 TTTTTTTTTTTTTTTTTTTTTTTTTTTTTT FDIK        TELAPSE      253.13 TCPU      253.13
 INSULATING STATE - LEVEL SHIFTER    1.00 au
 TOP OF VALENCE BANDS -    BAND     96; K    1; EIG -1.1784729E+00 AU
 BOTTOM OF VIRTUAL BANDS - BAND     97; K    1; EIG -1.5133310E-01 AU
 TTTTTTTTTTTTTTTTTTTTTTTTTTTTTT PDIG        TELAPSE      253.26 TCPU      253.26
 CHARGE NORMALIZATION FACTOR   1.00000000
 TOTAL ATOMIC CHARGES:
   5.9999978   6.0000022   5.9999978   6.0000022   5.9999978   6.0000022
   5.9999978   6.0000022   5.9999978   6.0000022   5.9999978   6.0000022
   5.9999978   6.0000022   5.9999978   6.0000022   5.9999978   6.0000022
   5.9999978   6.0000022   5.9999978   6.0000022   5.9999978   6.0000022
   5.9999978   6.0000022   5.9999978   6.0000022   5.9999978   6.0000022
   5.9999978   6.0000022
 TTTTTTTTTTTTTTTTTTTTTTTTTTTTTT MOQGAD      TELAPSE      253.36 TCPU      253.37
 TTTTTTTTTTTTTTTTTTTTTTTTTTTTTT SHELLX      TELAPSE      255.84 TCPU      255.84
 TTTTTTTTTTTTTTTTTTTTTTTTTTTTTT MONMO3      TELAPSE      255.96 TCPU      255.96
 NUMERICALLY INTEGRATED DENSITY    191.9999191199
 TTTTTTTTTTTTTTTTTTTTTTTTTTTTTT NUMDFT      TELAPSE      263.82 TCPU      263.82
 CYC  24 ETOT(AU) -1.216957428042E+03 DETOT -7.76E-08 tst  8.18E-08 PX  5.20E-06
 TTTTTTTTTTTTTTTTTTTTTTTTTTTTTT FDIK        TELAPSE      263.92 TCPU      263.92
 INSULATING STATE - LEVEL SHIFTER    1.00 au
 TOP OF VALENCE BANDS -    BAND     96; K    1; EIG -1.1784730E+00 AU
 BOTTOM OF VIRTUAL BANDS - BAND     97; K    1; EIG -1.5133320E-01 AU
 TTTTTTTTTTTTTTTTTTTTTTTTTTTTTT PDIG        TELAPSE      264.05 TCPU      264.05
 CHARGE NORMALIZATION FACTOR   1.00000000
 TOTAL ATOMIC CHARGES:
   5.9999978   6.0000022   5.9999978   6.0000022   5.9999978   6.0000022
   5.9999978   6.0000022   5.9999978   6.0000022   5.9999978   6.0000022
   5.9999978   6.0000022   5.9999978   6.0000022   5.9999978   6.0000022
   5.9999978   6.0000022   5.9999978   6.0000022   5.9999978   6.0000022
   5.9999978   6.0000022   5.9999978   6.0000022   5.9999978   6.0000022
   5.9999978   6.0000022
 TTTTTTTTTTTTTTTTTTTTTTTTTTTTTT MOQGAD      TELAPSE      264.16 TCPU      264.16
 TTTTTTTTTTTTTTTTTTTTTTTTTTTTTT SHELLX      TELAPSE      266.59 TCPU      266.59
 TTTTTTTTTTTTTTTTTTTTTTTTTTTTTT MONMO3      TELAPSE      266.70 TCPU      266.70
 NUMERICALLY INTEGRATED DENSITY    191.9999191202
 TTTTTTTTTTTTTTTTTTTTTTTTTTTTTT NUMDFT      TELAPSE      274.72 TCPU      274.72
 CYC  25 ETOT(AU) -1.216957428111E+03 DETOT -6.86E-08 tst  7.24E-08 PX  4.60E-06
 TTTTTTTTTTTTTTTTTTTTTTTTTTTTTT FDIK        TELAPSE      274.82 TCPU      274.82
 INSULATING STATE - LEVEL SHIFTER    1.00 au
 TOP OF VALENCE BANDS -    BAND     96; K    1; EIG -1.1784731E+00 AU
 BOTTOM OF VIRTUAL BANDS - BAND     97; K    1; EIG -1.5133329E-01 AU
 TTTTTTTTTTTTTTTTTTTTTTTTTTTTTT PDIG        TELAPSE      274.96 TCPU      274.96
 CHARGE NORMALIZATION FACTOR   1.00000000
 TOTAL ATOMIC CHARGES:
   5.9999978   6.0000022   5.9999978   6.0000022   5.9999978   6.0000022
   5.9999978   6.0000022   5.9999978   6.0000022   5.9999978   6.0000022
   5.9999978   6.0000022   5.9999978   6.0000022   5.9999978   6.0000022
   5.9999978   6.0000022   5.9999978   6.0000022   5.9999978   6.0000022
   5.9999978   6.0000022   5.9999978   6.0000022   5.9999978   6.0000022
   5.9999978   6.0000022
 TTTTTTTTTTTTTTTTTTTTTTTTTTTTTT MOQGAD      TELAPSE      275.07 TCPU      275.07
 TTTTTTTTTTTTTTTTTTTTTTTTTTTTTT SHELLX      TELAPSE      277.43 TCPU      277.43
 TTTTTTTTTTTTTTTTTTTTTTTTTTTTTT MONMO3      TELAPSE      277.55 TCPU      277.55
 NUMERICALLY INTEGRATED DENSITY    191.9999191204
 TTTTTTTTTTTTTTTTTTTTTTTTTTTTTT NUMDFT      TELAPSE      285.54 TCPU      285.55
 CYC  26 ETOT(AU) -1.216957428173E+03 DETOT -6.26E-08 tst  6.41E-08 PX  4.06E-06
 TTTTTTTTTTTTTTTTTTTTTTTTTTTTTT FDIK        TELAPSE      285.65 TCPU      285.65
 INSULATING STATE - LEVEL SHIFTER    1.00 au
 TOP OF VALENCE BANDS -    BAND     96; K    1; EIG -1.1784732E+00 AU
 BOTTOM OF VIRTUAL BANDS - BAND     97; K    1; EIG -1.5133334E-01 AU
 TTTTTTTTTTTTTTTTTTTTTTTTTTTTTT PDIG        TELAPSE      285.80 TCPU      285.80
 CHARGE NORMALIZATION FACTOR   1.00000000
 TOTAL ATOMIC CHARGES:
   5.9999978   6.0000022   5.9999978   6.0000022   5.9999978   6.0000022
   5.9999978   6.0000022   5.9999978   6.0000022   5.9999978   6.0000022
   5.9999978   6.0000022   5.9999978   6.0000022   5.9999978   6.0000022
   5.9999978   6.0000022   5.9999978   6.0000022   5.9999978   6.0000022
   5.9999978   6.0000022   5.9999978   6.0000022   5.9999978   6.0000022
   5.9999978   6.0000022
 TTTTTTTTTTTTTTTTTTTTTTTTTTTTTT MOQGAD      TELAPSE      285.90 TCPU      285.91
 TTTTTTTTTTTTTTTTTTTTTTTTTTTTTT SHELLX      TELAPSE      288.29 TCPU      288.30
 TTTTTTTTTTTTTTTTTTTTTTTTTTTTTT MONMO3      TELAPSE      288.41 TCPU      288.41
 NUMERICALLY INTEGRATED DENSITY    191.9999191206
 TTTTTTTTTTTTTTTTTTTTTTTTTTTTTT NUMDFT      TELAPSE      296.37 TCPU      296.37
 CYC  27 ETOT(AU) -1.216957428230E+03 DETOT -5.64E-08 tst  5.68E-08 PX  3.62E-06
 TTTTTTTTTTTTTTTTTTTTTTTTTTTTTT FDIK        TELAPSE      296.48 TCPU      296.48
 INSULATING STATE - LEVEL SHIFTER    1.00 au
 TOP OF VALENCE BANDS -    BAND     96; K    1; EIG -1.1784733E+00 AU
 BOTTOM OF VIRTUAL BANDS - BAND     97; K    1; EIG -1.5133339E-01 AU
 TTTTTTTTTTTTTTTTTTTTTTTTTTTTTT PDIG        TELAPSE      296.62 TCPU      296.63
 CHARGE NORMALIZATION FACTOR   1.00000000
 TOTAL ATOMIC CHARGES:
   5.9999978   6.0000022   5.9999978   6.0000022   5.9999978   6.0000022
   5.9999978   6.0000022   5.9999978   6.0000022   5.9999978   6.0000022
   5.9999978   6.0000022   5.9999978   6.0000022   5.9999978   6.0000022
   5.9999978   6.0000022   5.9999978   6.0000022   5.9999978   6.0000022
   5.9999978   6.0000022   5.9999978   6.0000022   5.9999978   6.0000022
   5.9999978   6.0000022
 TTTTTTTTTTTTTTTTTTTTTTTTTTTTTT MOQGAD      TELAPSE      296.73 TCPU      296.74
 TTTTTTTTTTTTTTTTTTTTTTTTTTTTTT SHELLX      TELAPSE      299.13 TCPU      299.13
 TTTTTTTTTTTTTTTTTTTTTTTTTTTTTT MONMO3      TELAPSE      299.24 TCPU      299.25
 NUMERICALLY INTEGRATED DENSITY    191.9999191209
 TTTTTTTTTTTTTTTTTTTTTTTTTTTTTT NUMDFT      TELAPSE      307.25 TCPU      307.25
 CYC  28 ETOT(AU) -1.216957428279E+03 DETOT -4.89E-08 tst  5.02E-08 PX  3.21E-06
 TTTTTTTTTTTTTTTTTTTTTTTTTTTTTT FDIK        TELAPSE      307.34 TCPU      307.35
 INSULATING STATE - LEVEL SHIFTER    1.00 au
 TOP OF VALENCE BANDS -    BAND     96; K    1; EIG -1.1784733E+00 AU
 BOTTOM OF VIRTUAL BANDS - BAND     97; K    1; EIG -1.5133342E-01 AU
 TTTTTTTTTTTTTTTTTTTTTTTTTTTTTT PDIG        TELAPSE      307.49 TCPU      307.49
 CHARGE NORMALIZATION FACTOR   1.00000000
 TOTAL ATOMIC CHARGES:
   5.9999978   6.0000022   5.9999978   6.0000022   5.9999978   6.0000022
   5.9999978   6.0000022   5.9999978   6.0000022   5.9999978   6.0000022
   5.9999978   6.0000022   5.9999978   6.0000022   5.9999978   6.0000022
   5.9999978   6.0000022   5.9999978   6.0000022   5.9999978   6.0000022
   5.9999978   6.0000022   5.9999978   6.0000022   5.9999978   6.0000022
   5.9999978   6.0000022
 TTTTTTTTTTTTTTTTTTTTTTTTTTTTTT MOQGAD      TELAPSE      307.60 TCPU      307.60
 TTTTTTTTTTTTTTTTTTTTTTTTTTTTTT SHELLX      TELAPSE      310.01 TCPU      310.02
 TTTTTTTTTTTTTTTTTTTTTTTTTTTTTT MONMO3      TELAPSE      310.13 TCPU      310.13
 NUMERICALLY INTEGRATED DENSITY    191.9999191210
 TTTTTTTTTTTTTTTTTTTTTTTTTTTTTT NUMDFT      TELAPSE      318.15 TCPU      318.15
 CYC  29 ETOT(AU) -1.216957428323E+03 DETOT -4.48E-08 tst  4.45E-08 PX  2.88E-06
 TTTTTTTTTTTTTTTTTTTTTTTTTTTTTT FDIK        TELAPSE      318.25 TCPU      318.25
 INSULATING STATE - LEVEL SHIFTER    1.00 au
 TOP OF VALENCE BANDS -    BAND     96; K    1; EIG -1.1784734E+00 AU
 BOTTOM OF VIRTUAL BANDS - BAND     97; K    1; EIG -1.5133345E-01 AU
 TTTTTTTTTTTTTTTTTTTTTTTTTTTTTT PDIG        TELAPSE      318.39 TCPU      318.39
 CHARGE NORMALIZATION FACTOR   1.00000000
 TOTAL ATOMIC CHARGES:
   5.9999978   6.0000022   5.9999978   6.0000022   5.9999978   6.0000022
   5.9999978   6.0000022   5.9999978   6.0000022   5.9999978   6.0000022
   5.9999978   6.0000022   5.9999978   6.0000022   5.9999978   6.0000022
   5.9999978   6.0000022   5.9999978   6.0000022   5.9999978   6.0000022
   5.9999978   6.0000022   5.9999978   6.0000022   5.9999978   6.0000022
   5.9999978   6.0000022
 TTTTTTTTTTTTTTTTTTTTTTTTTTTTTT MOQGAD      TELAPSE      318.49 TCPU      318.50
 TTTTTTTTTTTTTTTTTTTTTTTTTTTTTT SHELLX      TELAPSE      320.96 TCPU      320.97
 TTTTTTTTTTTTTTTTTTTTTTTTTTTTTT MONMO3      TELAPSE      321.08 TCPU      321.08
 NUMERICALLY INTEGRATED DENSITY    191.9999191212
 TTTTTTTTTTTTTTTTTTTTTTTTTTTTTT NUMDFT      TELAPSE      329.06 TCPU      329.06
 CYC  30 ETOT(AU) -1.216957428364E+03 DETOT -4.10E-08 tst  3.94E-08 PX  2.58E-06
 TTTTTTTTTTTTTTTTTTTTTTTTTTTTTT FDIK        TELAPSE      329.16 TCPU      329.16
 INSULATING STATE - LEVEL SHIFTER    1.00 au
 TOP OF VALENCE BANDS -    BAND     96; K    1; EIG -1.1784734E+00 AU
 BOTTOM OF VIRTUAL BANDS - BAND     97; K    1; EIG -1.5133346E-01 AU
 TTTTTTTTTTTTTTTTTTTTTTTTTTTTTT PDIG        TELAPSE      329.30 TCPU      329.30
 CHARGE NORMALIZATION FACTOR   1.00000000
 TOTAL ATOMIC CHARGES:
   5.9999978   6.0000022   5.9999978   6.0000022   5.9999978   6.0000022
   5.9999978   6.0000022   5.9999978   6.0000022   5.9999978   6.0000022
   5.9999978   6.0000022   5.9999978   6.0000022   5.9999978   6.0000022
   5.9999978   6.0000022   5.9999978   6.0000022   5.9999978   6.0000022
   5.9999978   6.0000022   5.9999978   6.0000022   5.9999978   6.0000022
   5.9999978   6.0000022
 TTTTTTTTTTTTTTTTTTTTTTTTTTTTTT MOQGAD      TELAPSE      329.40 TCPU      329.41
 TTTTTTTTTTTTTTTTTTTTTTTTTTTTTT SHELLX      TELAPSE      331.86 TCPU      331.86
 TTTTTTTTTTTTTTTTTTTTTTTTTTTTTT MONMO3      TELAPSE      331.97 TCPU      331.98
 NUMERICALLY INTEGRATED DENSITY    191.9999191214
 TTTTTTTTTTTTTTTTTTTTTTTTTTTTTT NUMDFT      TELAPSE      339.99 TCPU      339.99
 CYC  31 ETOT(AU) -1.216957428402E+03 DETOT -3.71E-08 tst  3.49E-08 PX  2.31E-06
 TTTTTTTTTTTTTTTTTTTTTTTTTTTTTT FDIK        TELAPSE      340.08 TCPU      340.09
 INSULATING STATE - LEVEL SHIFTER    1.00 au
 TOP OF VALENCE BANDS -    BAND     96; K    1; EIG -1.1784734E+00 AU
 BOTTOM OF VIRTUAL BANDS - BAND     97; K    1; EIG -1.5133348E-01 AU
 TTTTTTTTTTTTTTTTTTTTTTTTTTTTTT PDIG        TELAPSE      340.21 TCPU      340.22
 CHARGE NORMALIZATION FACTOR   1.00000000
 TOTAL ATOMIC CHARGES:
   5.9999978   6.0000022   5.9999978   6.0000022   5.9999978   6.0000022
   5.9999978   6.0000022   5.9999978   6.0000022   5.9999978   6.0000022
   5.9999978   6.0000022   5.9999978   6.0000022   5.9999978   6.0000022
   5.9999978   6.0000022   5.9999978   6.0000022   5.9999978   6.0000022
   5.9999978   6.0000022   5.9999978   6.0000022   5.9999978   6.0000022
   5.9999978   6.0000022
 TTTTTTTTTTTTTTTTTTTTTTTTTTTTTT MOQGAD      TELAPSE      340.32 TCPU      340.33
 TTTTTTTTTTTTTTTTTTTTTTTTTTTTTT SHELLX      TELAPSE      342.76 TCPU      342.77
 TTTTTTTTTTTTTTTTTTTTTTTTTTTTTT MONMO3      TELAPSE      342.88 TCPU      342.89
 NUMERICALLY INTEGRATED DENSITY    191.9999191216
 TTTTTTTTTTTTTTTTTTTTTTTTTTTTTT NUMDFT      TELAPSE      350.81 TCPU      350.81
 CYC  32 ETOT(AU) -1.216957428434E+03 DETOT -3.29E-08 tst  3.09E-08 PX  2.11E-06
 TTTTTTTTTTTTTTTTTTTTTTTTTTTTTT FDIK        TELAPSE      350.91 TCPU      350.91
 INSULATING STATE - LEVEL SHIFTER    1.00 au
 TOP OF VALENCE BANDS -    BAND     96; K    1; EIG -1.1784735E+00 AU
 BOTTOM OF VIRTUAL BANDS - BAND     97; K    1; EIG -1.5133349E-01 AU
 TTTTTTTTTTTTTTTTTTTTTTTTTTTTTT PDIG        TELAPSE      351.04 TCPU      351.04
 CHARGE NORMALIZATION FACTOR   1.00000000
 TOTAL ATOMIC CHARGES:
   5.9999978   6.0000022   5.9999978   6.0000022   5.9999978   6.0000022
   5.9999978   6.0000022   5.9999978   6.0000022   5.9999978   6.0000022
   5.9999978   6.0000022   5.9999978   6.0000022   5.9999978   6.0000022
   5.9999978   6.0000022   5.9999978   6.0000022   5.9999978   6.0000022
   5.9999978   6.0000022   5.9999978   6.0000022   5.9999978   6.0000022
   5.9999978   6.0000022
 TTTTTTTTTTTTTTTTTTTTTTTTTTTTTT MOQGAD      TELAPSE      351.14 TCPU      351.15
 TTTTTTTTTTTTTTTTTTTTTTTTTTTTTT SHELLX      TELAPSE      353.61 TCPU      353.62
 TTTTTTTTTTTTTTTTTTTTTTTTTTTTTT MONMO3      TELAPSE      353.73 TCPU      353.73
 NUMERICALLY INTEGRATED DENSITY    191.9999191217
 TTTTTTTTTTTTTTTTTTTTTTTTTTTTTT NUMDFT      TELAPSE      361.65 TCPU      361.65
 CYC  33 ETOT(AU) -1.216957428466E+03 DETOT -3.11E-08 tst  2.73E-08 PX  1.93E-06
 TTTTTTTTTTTTTTTTTTTTTTTTTTTTTT FDIK        TELAPSE      361.75 TCPU      361.75
 INSULATING STATE - LEVEL SHIFTER    1.00 au
 TOP OF VALENCE BANDS -    BAND     96; K    1; EIG -1.1784735E+00 AU
 BOTTOM OF VIRTUAL BANDS - BAND     97; K    1; EIG -1.5133350E-01 AU
 TTTTTTTTTTTTTTTTTTTTTTTTTTTTTT PDIG        TELAPSE      361.88 TCPU      361.89
 CHARGE NORMALIZATION FACTOR   1.00000000
 TOTAL ATOMIC CHARGES:
   5.9999978   6.0000022   5.9999978   6.0000022   5.9999978   6.0000022
   5.9999978   6.0000022   5.9999978   6.0000022   5.9999978   6.0000022
   5.9999978   6.0000022   5.9999978   6.0000022   5.9999978   6.0000022
   5.9999978   6.0000022   5.9999978   6.0000022   5.9999978   6.0000022
   5.9999978   6.0000022   5.9999978   6.0000022   5.9999978   6.0000022
   5.9999978   6.0000022
 TTTTTTTTTTTTTTTTTTTTTTTTTTTTTT MOQGAD      TELAPSE      361.99 TCPU      361.99
 TTTTTTTTTTTTTTTTTTTTTTTTTTTTTT SHELLX      TELAPSE      364.44 TCPU      364.45
 TTTTTTTTTTTTTTTTTTTTTTTTTTTTTT MONMO3      TELAPSE      364.56 TCPU      364.56
 NUMERICALLY INTEGRATED DENSITY    191.9999191219
 TTTTTTTTTTTTTTTTTTTTTTTTTTTTTT NUMDFT      TELAPSE      372.44 TCPU      372.45
 CYC  34 ETOT(AU) -1.216957428492E+03 DETOT -2.69E-08 tst  2.42E-08 PX  1.77E-06
 TTTTTTTTTTTTTTTTTTTTTTTTTTTTTT FDIK        TELAPSE      372.54 TCPU      372.54
 INSULATING STATE - LEVEL SHIFTER    1.00 au
 TOP OF VALENCE BANDS -    BAND     96; K    1; EIG -1.1784735E+00 AU
 BOTTOM OF VIRTUAL BANDS - BAND     97; K    1; EIG -1.5133349E-01 AU
 TTTTTTTTTTTTTTTTTTTTTTTTTTTTTT PDIG        TELAPSE      372.67 TCPU      372.68
 CHARGE NORMALIZATION FACTOR   1.00000000
 TOTAL ATOMIC CHARGES:
   5.9999978   6.0000022   5.9999978   6.0000022   5.9999978   6.0000022
   5.9999978   6.0000022   5.9999978   6.0000022   5.9999978   6.0000022
   5.9999978   6.0000022   5.9999978   6.0000022   5.9999978   6.0000022
   5.9999978   6.0000022   5.9999978   6.0000022   5.9999978   6.0000022
   5.9999978   6.0000022   5.9999978   6.0000022   5.9999978   6.0000022
   5.9999978   6.0000022
 TTTTTTTTTTTTTTTTTTTTTTTTTTTTTT MOQGAD      TELAPSE      372.78 TCPU      372.78
 TTTTTTTTTTTTTTTTTTTTTTTTTTTTTT SHELLX      TELAPSE      375.26 TCPU      375.27
 TTTTTTTTTTTTTTTTTTTTTTTTTTTTTT MONMO3      TELAPSE      375.38 TCPU      375.38
 NUMERICALLY INTEGRATED DENSITY    191.9999191220
 TTTTTTTTTTTTTTTTTTTTTTTTTTTTTT NUMDFT      TELAPSE      383.25 TCPU      383.26
 CYC  35 ETOT(AU) -1.216957428518E+03 DETOT -2.56E-08 tst  2.14E-08 PX  1.62E-06
 TTTTTTTTTTTTTTTTTTTTTTTTTTTTTT FDIK        TELAPSE      383.34 TCPU      383.35
 INSULATING STATE - LEVEL SHIFTER    1.00 au
 TOP OF VALENCE BANDS -    BAND     96; K    1; EIG -1.1784735E+00 AU
 BOTTOM OF VIRTUAL BANDS - BAND     97; K    1; EIG -1.5133350E-01 AU
 TTTTTTTTTTTTTTTTTTTTTTTTTTTTTT PDIG        TELAPSE      383.48 TCPU      383.48
 CHARGE NORMALIZATION FACTOR   1.00000000
 TOTAL ATOMIC CHARGES:
   5.9999978   6.0000022   5.9999978   6.0000022   5.9999978   6.0000022
   5.9999978   6.0000022   5.9999978   6.0000022   5.9999978   6.0000022
   5.9999978   6.0000022   5.9999978   6.0000022   5.9999978   6.0000022
   5.9999978   6.0000022   5.9999978   6.0000022   5.9999978   6.0000022
   5.9999978   6.0000022   5.9999978   6.0000022   5.9999978   6.0000022
   5.9999978   6.0000022
 TTTTTTTTTTTTTTTTTTTTTTTTTTTTTT MOQGAD      TELAPSE      383.59 TCPU      383.59
 TTTTTTTTTTTTTTTTTTTTTTTTTTTTTT SHELLX      TELAPSE      386.01 TCPU      386.02
 TTTTTTTTTTTTTTTTTTTTTTTTTTTTTT MONMO3      TELAPSE      386.13 TCPU      386.14
 NUMERICALLY INTEGRATED DENSITY    191.9999191221
 TTTTTTTTTTTTTTTTTTTTTTTTTTTTTT NUMDFT      TELAPSE      394.11 TCPU      394.12
 CYC  36 ETOT(AU) -1.216957428541E+03 DETOT -2.27E-08 tst  1.90E-08 PX  1.48E-06
 TTTTTTTTTTTTTTTTTTTTTTTTTTTTTT FDIK        TELAPSE      394.20 TCPU      394.21
 INSULATING STATE - LEVEL SHIFTER    1.00 au
 TOP OF VALENCE BANDS -    BAND     96; K    1; EIG -1.1784735E+00 AU
 BOTTOM OF VIRTUAL BANDS - BAND     97; K    1; EIG -1.5133350E-01 AU
 TTTTTTTTTTTTTTTTTTTTTTTTTTTTTT PDIG        TELAPSE      394.34 TCPU      394.34
 CHARGE NORMALIZATION FACTOR   1.00000000
 TOTAL ATOMIC CHARGES:
   5.9999978   6.0000022   5.9999978   6.0000022   5.9999978   6.0000022
   5.9999978   6.0000022   5.9999978   6.0000022   5.9999978   6.0000022
   5.9999978   6.0000022   5.9999978   6.0000022   5.9999978   6.0000022
   5.9999978   6.0000022   5.9999978   6.0000022   5.9999978   6.0000022
   5.9999978   6.0000022   5.9999978   6.0000022   5.9999978   6.0000022
   5.9999978   6.0000022
 TTTTTTTTTTTTTTTTTTTTTTTTTTTTTT MOQGAD      TELAPSE      394.45 TCPU      394.45
 TTTTTTTTTTTTTTTTTTTTTTTTTTTTTT SHELLX      TELAPSE      396.87 TCPU      396.87
 TTTTTTTTTTTTTTTTTTTTTTTTTTTTTT MONMO3      TELAPSE      396.98 TCPU      396.99
 NUMERICALLY INTEGRATED DENSITY    191.9999191223
 TTTTTTTTTTTTTTTTTTTTTTTTTTTTTT NUMDFT      TELAPSE      404.98 TCPU      404.99
 CYC  37 ETOT(AU) -1.216957428562E+03 DETOT -2.09E-08 tst  1.68E-08 PX  1.36E-06
 TTTTTTTTTTTTTTTTTTTTTTTTTTTTTT FDIK        TELAPSE      405.07 TCPU      405.08
 INSULATING STATE - LEVEL SHIFTER    1.00 au
 TOP OF VALENCE BANDS -    BAND     96; K    1; EIG -1.1784735E+00 AU
 BOTTOM OF VIRTUAL BANDS - BAND     97; K    1; EIG -1.5133350E-01 AU
 TTTTTTTTTTTTTTTTTTTTTTTTTTTTTT PDIG        TELAPSE      405.21 TCPU      405.21
 CHARGE NORMALIZATION FACTOR   1.00000000
 TOTAL ATOMIC CHARGES:
   5.9999978   6.0000022   5.9999978   6.0000022   5.9999978   6.0000022
   5.9999978   6.0000022   5.9999978   6.0000022   5.9999978   6.0000022
   5.9999978   6.0000022   5.9999978   6.0000022   5.9999978   6.0000022
   5.9999978   6.0000022   5.9999978   6.0000022   5.9999978   6.0000022
   5.9999978   6.0000022   5.9999978   6.0000022   5.9999978   6.0000022
   5.9999978   6.0000022
 TTTTTTTTTTTTTTTTTTTTTTTTTTTTTT MOQGAD      TELAPSE      405.31 TCPU      405.32
 TTTTTTTTTTTTTTTTTTTTTTTTTTTTTT SHELLX      TELAPSE      407.73 TCPU      407.73
 TTTTTTTTTTTTTTTTTTTTTTTTTTTTTT MONMO3      TELAPSE      407.84 TCPU      407.85
 NUMERICALLY INTEGRATED DENSITY    191.9999191224
 TTTTTTTTTTTTTTTTTTTTTTTTTTTTTT NUMDFT      TELAPSE      415.82 TCPU      415.83
 CYC  38 ETOT(AU) -1.216957428581E+03 DETOT -1.92E-08 tst  1.49E-08 PX  1.25E-06
 TTTTTTTTTTTTTTTTTTTTTTTTTTTTTT FDIK        TELAPSE      415.92 TCPU      415.92
 INSULATING STATE - LEVEL SHIFTER    1.00 au
 TOP OF VALENCE BANDS -    BAND     96; K    1; EIG -1.1784735E+00 AU
 BOTTOM OF VIRTUAL BANDS - BAND     97; K    1; EIG -1.5133350E-01 AU
 TTTTTTTTTTTTTTTTTTTTTTTTTTTTTT PDIG        TELAPSE      416.04 TCPU      416.05
 CHARGE NORMALIZATION FACTOR   1.00000000
 TOTAL ATOMIC CHARGES:
   5.9999978   6.0000022   5.9999978   6.0000022   5.9999978   6.0000022
   5.9999978   6.0000022   5.9999978   6.0000022   5.9999978   6.0000022
   5.9999978   6.0000022   5.9999978   6.0000022   5.9999978   6.0000022
   5.9999978   6.0000022   5.9999978   6.0000022   5.9999978   6.0000022
   5.9999978   6.0000022   5.9999978   6.0000022   5.9999978   6.0000022
   5.9999978   6.0000022
 TTTTTTTTTTTTTTTTTTTTTTTTTTTTTT MOQGAD      TELAPSE      416.15 TCPU      416.16
 TTTTTTTTTTTTTTTTTTTTTTTTTTTTTT SHELLX      TELAPSE      418.51 TCPU      418.52
 TTTTTTTTTTTTTTTTTTTTTTTTTTTTTT MONMO3      TELAPSE      418.63 TCPU      418.63
 NUMERICALLY INTEGRATED DENSITY    191.9999191225
 TTTTTTTTTTTTTTTTTTTTTTTTTTTTTT NUMDFT      TELAPSE      426.58 TCPU      426.59
 CYC  39 ETOT(AU) -1.216957428598E+03 DETOT -1.72E-08 tst  1.32E-08 PX  1.15E-06
 TTTTTTTTTTTTTTTTTTTTTTTTTTTTTT FDIK        TELAPSE      426.67 TCPU      426.68
 INSULATING STATE - LEVEL SHIFTER    1.00 au
 TOP OF VALENCE BANDS -    BAND     96; K    1; EIG -1.1784735E+00 AU
 BOTTOM OF VIRTUAL BANDS - BAND     97; K    1; EIG -1.5133350E-01 AU
 TTTTTTTTTTTTTTTTTTTTTTTTTTTTTT PDIG        TELAPSE      426.81 TCPU      426.81
 CHARGE NORMALIZATION FACTOR   1.00000000
 TOTAL ATOMIC CHARGES:
   5.9999978   6.0000022   5.9999978   6.0000022   5.9999978   6.0000022
   5.9999978   6.0000022   5.9999978   6.0000022   5.9999978   6.0000022
   5.9999978   6.0000022   5.9999978   6.0000022   5.9999978   6.0000022
   5.9999978   6.0000022   5.9999978   6.0000022   5.9999978   6.0000022
   5.9999978   6.0000022   5.9999978   6.0000022   5.9999978   6.0000022
   5.9999978   6.0000022
 TTTTTTTTTTTTTTTTTTTTTTTTTTTTTT MOQGAD      TELAPSE      426.91 TCPU      426.92
 TTTTTTTTTTTTTTTTTTTTTTTTTTTTTT SHELLX      TELAPSE      429.27 TCPU      429.27
 TTTTTTTTTTTTTTTTTTTTTTTTTTTTTT MONMO3      TELAPSE      429.38 TCPU      429.39
 NUMERICALLY INTEGRATED DENSITY    191.9999191226
 TTTTTTTTTTTTTTTTTTTTTTTTTTTTTT NUMDFT      TELAPSE      437.35 TCPU      437.36
 CYC  40 ETOT(AU) -1.216957428614E+03 DETOT -1.64E-08 tst  1.17E-08 PX  1.06E-06
 TTTTTTTTTTTTTTTTTTTTTTTTTTTTTT FDIK        TELAPSE      437.44 TCPU      437.45
 INSULATING STATE - LEVEL SHIFTER    1.00 au
 TOP OF VALENCE BANDS -    BAND     96; K    1; EIG -1.1784735E+00 AU
 BOTTOM OF VIRTUAL BANDS - BAND     97; K    1; EIG -1.5133349E-01 AU
 TTTTTTTTTTTTTTTTTTTTTTTTTTTTTT PDIG        TELAPSE      437.58 TCPU      437.59
 CHARGE NORMALIZATION FACTOR   1.00000000
 TOTAL ATOMIC CHARGES:
   5.9999978   6.0000022   5.9999978   6.0000022   5.9999978   6.0000022
   5.9999978   6.0000022   5.9999978   6.0000022   5.9999978   6.0000022
   5.9999978   6.0000022   5.9999978   6.0000022   5.9999978   6.0000022
   5.9999978   6.0000022   5.9999978   6.0000022   5.9999978   6.0000022
   5.9999978   6.0000022   5.9999978   6.0000022   5.9999978   6.0000022
   5.9999978   6.0000022
 TTTTTTTTTTTTTTTTTTTTTTTTTTTTTT MOQGAD      TELAPSE      437.69 TCPU      437.70
 TTTTTTTTTTTTTTTTTTTTTTTTTTTTTT SHELLX      TELAPSE      440.06 TCPU      440.07
 TTTTTTTTTTTTTTTTTTTTTTTTTTTTTT MONMO3      TELAPSE      440.18 TCPU      440.18
 NUMERICALLY INTEGRATED DENSITY    191.9999191227
 TTTTTTTTTTTTTTTTTTTTTTTTTTTTTT NUMDFT      TELAPSE      448.19 TCPU      448.20
 CYC  41 ETOT(AU) -1.216957428629E+03 DETOT -1.45E-08 tst  1.03E-08 PX  9.79E-07
 TTTTTTTTTTTTTTTTTTTTTTTTTTTTTT FDIK        TELAPSE      448.29 TCPU      448.29
 INSULATING STATE - LEVEL SHIFTER    1.00 au
 TOP OF VALENCE BANDS -    BAND     96; K    1; EIG -1.1784735E+00 AU
 BOTTOM OF VIRTUAL BANDS - BAND     97; K    1; EIG -1.5133349E-01 AU
 TTTTTTTTTTTTTTTTTTTTTTTTTTTTTT PDIG        TELAPSE      448.42 TCPU      448.42
 CHARGE NORMALIZATION FACTOR   1.00000000
 TOTAL ATOMIC CHARGES:
   5.9999978   6.0000022   5.9999978   6.0000022   5.9999978   6.0000022
   5.9999978   6.0000022   5.9999978   6.0000022   5.9999978   6.0000022
   5.9999978   6.0000022   5.9999978   6.0000022   5.9999978   6.0000022
   5.9999978   6.0000022   5.9999978   6.0000022   5.9999978   6.0000022
   5.9999978   6.0000022   5.9999978   6.0000022   5.9999978   6.0000022
   5.9999978   6.0000022
 TTTTTTTTTTTTTTTTTTTTTTTTTTTTTT MOQGAD      TELAPSE      448.52 TCPU      448.53
 TTTTTTTTTTTTTTTTTTTTTTTTTTTTTT SHELLX      TELAPSE      450.86 TCPU      450.87
 TTTTTTTTTTTTTTTTTTTTTTTTTTTTTT MONMO3      TELAPSE      450.97 TCPU      450.98
 NUMERICALLY INTEGRATED DENSITY    191.9999191227
 TTTTTTTTTTTTTTTTTTTTTTTTTTTTTT NUMDFT      TELAPSE      458.93 TCPU      458.94
 CYC  42 ETOT(AU) -1.216957428643E+03 DETOT -1.40E-08 tst  9.14E-09 PX  9.03E-07
 TTTTTTTTTTTTTTTTTTTTTTTTTTTTTT FDIK        TELAPSE      459.03 TCPU      459.04
 INSULATING STATE - LEVEL SHIFTER    1.00 au
 TOP OF VALENCE BANDS -    BAND     96; K    1; EIG -1.1784735E+00 AU
 BOTTOM OF VIRTUAL BANDS - BAND     97; K    1; EIG -1.5133348E-01 AU
 TTTTTTTTTTTTTTTTTTTTTTTTTTTTTT PDIG        TELAPSE      459.17 TCPU      459.18
 CHARGE NORMALIZATION FACTOR   1.00000000
 TOTAL ATOMIC CHARGES:
   5.9999978   6.0000022   5.9999978   6.0000022   5.9999978   6.0000022
   5.9999978   6.0000022   5.9999978   6.0000022   5.9999978   6.0000022
   5.9999978   6.0000022   5.9999978   6.0000022   5.9999978   6.0000022
   5.9999978   6.0000022   5.9999978   6.0000022   5.9999978   6.0000022
   5.9999978   6.0000022   5.9999978   6.0000022   5.9999978   6.0000022
   5.9999978   6.0000022
 TTTTTTTTTTTTTTTTTTTTTTTTTTTTTT MOQGAD      TELAPSE      459.28 TCPU      459.28
 TTTTTTTTTTTTTTTTTTTTTTTTTTTTTT SHELLX      TELAPSE      461.61 TCPU      461.62
 TTTTTTTTTTTTTTTTTTTTTTTTTTTTTT MONMO3      TELAPSE      461.73 TCPU      461.74
 NUMERICALLY INTEGRATED DENSITY    191.9999191228
 TTTTTTTTTTTTTTTTTTTTTTTTTTTTTT NUMDFT      TELAPSE      469.68 TCPU      469.69
 CYC  43 ETOT(AU) -1.216957428655E+03 DETOT -1.26E-08 tst  8.10E-09 PX  8.31E-07
 TTTTTTTTTTTTTTTTTTTTTTTTTTTTTT FDIK        TELAPSE      469.78 TCPU      469.78
 INSULATING STATE - LEVEL SHIFTER    1.00 au
 TOP OF VALENCE BANDS -    BAND     96; K    1; EIG -1.1784735E+00 AU
 BOTTOM OF VIRTUAL BANDS - BAND     97; K    1; EIG -1.5133348E-01 AU
 TTTTTTTTTTTTTTTTTTTTTTTTTTTTTT PDIG        TELAPSE      469.91 TCPU      469.92
 CHARGE NORMALIZATION FACTOR   1.00000000
 TOTAL ATOMIC CHARGES:
   5.9999978   6.0000022   5.9999978   6.0000022   5.9999978   6.0000022
   5.9999978   6.0000022   5.9999978   6.0000022   5.9999978   6.0000022
   5.9999978   6.0000022   5.9999978   6.0000022   5.9999978   6.0000022
   5.9999978   6.0000022   5.9999978   6.0000022   5.9999978   6.0000022
   5.9999978   6.0000022   5.9999978   6.0000022   5.9999978   6.0000022
   5.9999978   6.0000022
 TTTTTTTTTTTTTTTTTTTTTTTTTTTTTT MOQGAD      TELAPSE      470.02 TCPU      470.03
 TTTTTTTTTTTTTTTTTTTTTTTTTTTTTT SHELLX      TELAPSE      472.38 TCPU      472.39
 TTTTTTTTTTTTTTTTTTTTTTTTTTTTTT MONMO3      TELAPSE      472.49 TCPU      472.50
 NUMERICALLY INTEGRATED DENSITY    191.9999191229
 TTTTTTTTTTTTTTTTTTTTTTTTTTTTTT NUMDFT      TELAPSE      480.48 TCPU      480.49
 CYC  44 ETOT(AU) -1.216957428667E+03 DETOT -1.15E-08 tst  7.17E-09 PX  7.69E-07
 TTTTTTTTTTTTTTTTTTTTTTTTTTTTTT FDIK        TELAPSE      480.58 TCPU      480.59
 INSULATING STATE - LEVEL SHIFTER    1.00 au
 TOP OF VALENCE BANDS -    BAND     96; K    1; EIG -1.1784735E+00 AU
 BOTTOM OF VIRTUAL BANDS - BAND     97; K    1; EIG -1.5133347E-01 AU
 TTTTTTTTTTTTTTTTTTTTTTTTTTTTTT PDIG        TELAPSE      480.71 TCPU      480.72
 CHARGE NORMALIZATION FACTOR   1.00000000
[...]
  21 F   6 C    -0.33387302140E+00  0.22693363620E+01 -0.22693361327E+01   3.209
  22 F   6 C    -0.16612697860E+00  0.12281539985E+01 -0.29650264637E+01   3.209
  23 F   6 C     0.16612697860E+00  0.29650306336E+01  0.12281560768E+01   3.209
  24 F   6 C     0.33387302140E+00  0.32093214508E+01 -0.16216745981E-06   3.209
  25 F   6 C    -0.33387302140E+00 -0.16216745835E-06  0.32093260986E+01   3.209
  26 F   6 C    -0.16612697860E+00  0.12281542982E+01  0.29650263396E+01   3.209
  27 F   6 C     0.16612697860E+00 -0.29650307577E+01  0.12281557772E+01   3.209
  28 F   6 C     0.33387302140E+00 -0.22693328462E+01  0.22693330755E+01   3.209
  29 F   6 C    -0.33387302140E+00 -0.22693361327E+01 -0.22693363620E+01   3.209
  30 F   6 C    -0.16612697860E+00 -0.29650264637E+01 -0.12281539985E+01   3.209
  31 F   6 C     0.16612697860E+00  0.12281560768E+01 -0.29650306336E+01   3.209
  32 F   6 C     0.33387302140E+00 -0.16216746049E-06 -0.32093214508E+01   3.209

 T = ATOM BELONGING TO THE ASYMMETRIC UNIT

 TOTAL ENERGY(DFT)(AU)( 10) -1.2169735148664E+03     DE (AU)   -1.166E-04

 SYMMETRY ALLOWED FORCES  (COORDINATE, FORCE)

    1 -2.9285215E-03    2  1.2441268E-04    3  3.8924249E-07    4  1.2409598E-04
    5  1.0671903E-04

 GRADIENT NORM     0.002936  GRADIENT THRESHOLD     0.500000

 PREDICTED ENERGY CHANGE    -0.408E-05

 MAX GRADIENT      0.002929  THRESHOLD              0.000450 CONVERGED NO
 RMS GRADIENT      0.001313  THRESHOLD              0.000300 CONVERGED NO
 MAX DISPLAC.      0.004799  THRESHOLD              0.001800 CONVERGED NO
 RMS DISPLAC.      0.002615  THRESHOLD              0.001200 CONVERGED NO
 TTTTTTTTTTTTTTTTTTTTTTTTTTTTTT OPTI        TELAPSE     1100.58 TCPU     1100.60
 *******************************************************************************
 COORDINATE AND CELL OPTIMIZATION - POINT    5
 *******************************************************************************
 LATTICE PARAMETERS (ANGSTROMS AND DEGREES) - BOHR = 0.5291772083 ANGSTROM
 PRIMITIVE CELL
         A              B              C           ALPHA      BETA       GAMMA 
     4.28871718   500.00000000   500.00000000    90.000000  90.000000  90.000000
 *******************************************************************************
 ATOMS IN THE ASYMMETRIC UNIT    2 - ATOMS IN THE UNIT CELL:   32
     ATOM              X/A             Y(ANGSTROM)         Z(ANGSTROM)   R(ANGS)
 *******************************************************************************
   1 T   6 C    -0.33392725519E+00  0.32095358656E+01  0.19150974128E-06   3.210
   2 T   6 C    -0.16607274481E+00  0.29652198913E+01 -0.12282345017E+01   3.210
   3 F   6 C     0.16607274481E+00  0.12282360244E+01  0.29652245684E+01   3.210
   4 F   6 C     0.33392725519E+00  0.22694812429E+01  0.22694809721E+01   3.210
   5 F   6 C    -0.33392725519E+00 -0.22694847104E+01  0.22694844396E+01   3.210
   6 F   6 C    -0.16607274481E+00 -0.12282341478E+01  0.29652200378E+01   3.210
   7 F   6 C     0.16607274481E+00 -0.29652244218E+01 -0.12282363783E+01   3.210
   8 F   6 C     0.33392725519E+00 -0.32095309618E+01  0.19150974120E-06   3.210
   9 F   6 C    -0.33392725519E+00  0.19150974070E-06 -0.32095358656E+01   3.210
  10 F   6 C    -0.16607274481E+00 -0.12282345017E+01 -0.29652198913E+01   3.210
  11 F   6 C     0.16607274481E+00  0.29652245684E+01 -0.12282360244E+01   3.210
  12 F   6 C     0.33392725519E+00  0.22694809721E+01 -0.22694812429E+01   3.210
  13 F   6 C    -0.33392725519E+00  0.22694844396E+01  0.22694847104E+01   3.210
  14 F   6 C    -0.16607274481E+00  0.29652200378E+01  0.12282341478E+01   3.210
  15 F   6 C     0.16607274481E+00 -0.12282363783E+01  0.29652244218E+01   3.210
  16 F   6 C     0.33392725519E+00  0.19150974030E-06  0.32095309618E+01   3.210
  17 F   6 C    -0.33392725519E+00 -0.32095358656E+01 -0.19150974010E-06   3.210
  18 F   6 C    -0.16607274481E+00 -0.29652198913E+01  0.12282345017E+01   3.210
  19 F   6 C     0.16607274481E+00 -0.12282360244E+01 -0.29652245684E+01   3.210
  20 F   6 C     0.33392725519E+00 -0.22694812429E+01 -0.22694809721E+01   3.210
  21 F   6 C    -0.33392725519E+00  0.22694847104E+01 -0.22694844396E+01   3.210
  22 F   6 C    -0.16607274481E+00  0.12282341478E+01 -0.29652200378E+01   3.210
  23 F   6 C     0.16607274481E+00  0.29652244218E+01  0.12282363783E+01   3.210
  24 F   6 C     0.33392725519E+00  0.32095309618E+01 -0.19150974097E-06   3.210
  25 F   6 C    -0.33392725519E+00 -0.19150973951E-06  0.32095358656E+01   3.210
  26 F   6 C    -0.16607274481E+00  0.12282345017E+01  0.29652198913E+01   3.210
  27 F   6 C     0.16607274481E+00 -0.29652245684E+01  0.12282360244E+01   3.210
  28 F   6 C     0.33392725519E+00 -0.22694809721E+01  0.22694812429E+01   3.210
  29 F   6 C    -0.33392725519E+00 -0.22694844396E+01 -0.22694847104E+01   3.210
  30 F   6 C    -0.16607274481E+00 -0.29652200378E+01 -0.12282341478E+01   3.210
  31 F   6 C     0.16607274481E+00  0.12282363783E+01 -0.29652244218E+01   3.210
  32 F   6 C     0.33392725519E+00 -0.19150974164E-06 -0.32095309618E+01   3.210

 T = ATOM BELONGING TO THE ASYMMETRIC UNIT

 TOTAL ENERGY(DFT)(AU)(  8) -1.2169735184452E+03     DE (AU)   -3.579E-06

 SYMMETRY ALLOWED FORCES  (COORDINATE, FORCE)

    1 -4.2977806E-04    2 -4.5235410E-05    3  1.6135688E-07    4 -4.5119597E-05
    5 -1.0132009E-04

 GRADIENT NORM     0.000446  GRADIENT THRESHOLD     0.500000

 PREDICTED ENERGY CHANGE    -0.183E-06

 MAX GRADIENT      0.000430  THRESHOLD              0.000450 CONVERGED YES
 RMS GRADIENT      0.000200  THRESHOLD              0.000300 CONVERGED YES
 MAX DISPLAC.      0.001577  THRESHOLD              0.001800 CONVERGED YES
 RMS DISPLAC.      0.000792  THRESHOLD              0.001200 CONVERGED YES

 CONVERGENCE TESTS SATISFIED AFTER   5 ENERGY AND GRADIENT CALCULATIONS
++++++++++++++++++++++++++++++++++++++++++++++++++++++++++++++++++++++
 FINALRUN OPTION: RE-STARTING OPTIMIZATION
++++++++++++++++++++++++++++++++++++++++++++++++++++++++++++++++++++++
 TTTTTTTTTTTTTTTTTTTTTTTTTTTTTT OPTI        TELAPSE     1241.49 TCPU     1241.52
 *******************************************************************************
 COORDINATE AND CELL OPTIMIZATION - POINT    6
 *******************************************************************************
 LATTICE PARAMETERS (ANGSTROMS AND DEGREES) - BOHR = 0.5291772083 ANGSTROM
 PRIMITIVE CELL
         A              B              C           ALPHA      BETA       GAMMA 
     4.28851602   500.00000000   500.00000000    90.000000  90.000000  90.000000
 *******************************************************************************
 ATOMS IN THE ASYMMETRIC UNIT    2 - ATOMS IN THE UNIT CELL:   32
     ATOM              X/A             Y(ANGSTROM)         Z(ANGSTROM)   R(ANGS)
 *******************************************************************************
   1 T   6 C    -0.33393544594E+00  0.32094689296E+01  0.20296215431E-06   3.209
   2 T   6 C    -0.16606455406E+00  0.29651581242E+01 -0.12282089293E+01   3.209
   3 F   6 C     0.16606455406E+00  0.12282103985E+01  0.29651627319E+01   3.209
   4 F   6 C     0.33393544594E+00  0.22694339799E+01  0.22694336929E+01   3.209
   5 F   6 C    -0.33393544594E+00 -0.22694373876E+01  0.22694371006E+01   3.209
   6 F   6 C    -0.16606455406E+00 -0.12282085543E+01  0.29651582796E+01   3.209
   7 F   6 C     0.16606455406E+00 -0.29651625766E+01 -0.12282107736E+01   3.209
   8 F   6 C     0.33393544594E+00 -0.32094641104E+01  0.20296215423E-06   3.209
   9 F   6 C    -0.33393544594E+00  0.20296215372E-06 -0.32094689296E+01   3.209
  10 F   6 C    -0.16606455406E+00 -0.12282089293E+01 -0.29651581242E+01   3.209
  11 F   6 C     0.16606455406E+00  0.29651627319E+01 -0.12282103985E+01   3.209
  12 F   6 C     0.33393544594E+00  0.22694336929E+01 -0.22694339799E+01   3.209
  13 F   6 C    -0.33393544594E+00  0.22694371006E+01  0.22694373876E+01   3.209
  14 F   6 C    -0.16606455406E+00  0.29651582796E+01  0.12282085543E+01   3.209
  15 F   6 C     0.16606455406E+00 -0.12282107736E+01  0.29651625766E+01   3.209
  16 F   6 C     0.33393544594E+00  0.20296215333E-06  0.32094641104E+01   3.209
  17 F   6 C    -0.33393544594E+00 -0.32094689296E+01 -0.20296215313E-06   3.209
  18 F   6 C    -0.16606455406E+00 -0.29651581242E+01  0.12282089293E+01   3.209
  19 F   6 C     0.16606455406E+00 -0.12282103985E+01 -0.29651627319E+01   3.209
  20 F   6 C     0.33393544594E+00 -0.22694339799E+01 -0.22694336929E+01   3.209
  21 F   6 C    -0.33393544594E+00  0.22694373876E+01 -0.22694371006E+01   3.209
  22 F   6 C    -0.16606455406E+00  0.12282085543E+01 -0.29651582796E+01   3.209
  23 F   6 C     0.16606455406E+00  0.29651625766E+01  0.12282107736E+01   3.209
  24 F   6 C     0.33393544594E+00  0.32094641104E+01 -0.20296215399E-06   3.209
  25 F   6 C    -0.33393544594E+00 -0.20296215254E-06  0.32094689296E+01   3.209
  26 F   6 C    -0.16606455406E+00  0.12282089293E+01  0.29651581242E+01   3.209
  27 F   6 C     0.16606455406E+00 -0.29651627319E+01  0.12282103985E+01   3.209
  28 F   6 C     0.33393544594E+00 -0.22694336929E+01  0.22694339799E+01   3.209
  29 F   6 C    -0.33393544594E+00 -0.22694371006E+01 -0.22694373876E+01   3.209
  30 F   6 C    -0.16606455406E+00 -0.29651582796E+01 -0.12282085543E+01   3.209
  31 F   6 C     0.16606455406E+00  0.12282107736E+01 -0.29651625766E+01   3.209
  32 F   6 C     0.33393544594E+00 -0.20296215467E-06 -0.32094641104E+01   3.209

 T = ATOM BELONGING TO THE ASYMMETRIC UNIT

 ENERGY DIFFERENCE WITH RESPECT TO FIRST CALCULATION USING
 THE PRESENT REFERENCE GEOMETRY:  1.216973518445E+03

 MAXIMUM ATOM DISPLACEMENT WITH RESPECT TO
 THE PRESENT REFERENCE GEOMETRY:   1.238299684047E-01

 REFERENCE GEOMETRY WILL BE CHANGED

 TOTAL ENERGY(DFT)(AU)( 52) -1.2169739216763E+03     DE (AU)   -4.032E-04

 SYMMETRY ALLOWED FORCES  (COORDINATE, FORCE)

    1 -8.0536909E-05    2 -1.7682686E-05    3 -2.8361078E-06    4  6.4220303E-07
    5 -8.2433126E-05

 GRADIENT NORM     0.000117  GRADIENT THRESHOLD     0.500000

 HESSIAN UPDATE SKIPPED

 PREDICTED ENERGY CHANGE    -0.673E-07

 MAX GRADIENT      0.000082  THRESHOLD              0.000450 CONVERGED YES
 RMS GRADIENT      0.000052  THRESHOLD              0.000300 CONVERGED YES
 MAX DISPLAC.      0.001607  THRESHOLD              0.001800 CONVERGED YES
 RMS DISPLAC.      0.000722  THRESHOLD              0.001200 CONVERGED YES

 CONVERGENCE TESTS SATISFIED AFTER   6 ENERGY AND GRADIENT CALCULATIONS

 ******************************************************************
 * OPT END - CONVERGED * E(AU):  -1.216973921676E+03  POINTS    6 *
 ******************************************************************

 WARNING **** iordo **** not allocated - eigenvalues printing removed
 WARNING **** iordo **** not allocated - eigenvector printing removed
 EIGENVECTORS IN FORTRAN UNIT  8

 NEIGHBORS OF THE NON-EQUIVALENT ATOMS

 N = NUMBER OF NEIGHBORS AT DISTANCE R
    ATOM  N     R/ANG      R/AU   NEIGHBORS (ATOM LABELS AND CELL INDICES)
   1 C    1     1.4243     2.6916  24 C    0 0 0
   1 C    1     1.4445     2.7296  14 C    0 0 0
   1 C    1     1.4445     2.7296   2 C    0 0 0
   1 C    2     2.4564     4.6420  13 C    0 0 0  21 C    0 0 0
   1 C    4     2.4831     4.6925  11 C    0 0 0  11 C    1 0 0  23 C    1 0 0
                                   23 C    0 0 0
   1 C    1     2.8395     5.3659   4 C    0 0 0

   2 C    1     1.4243     2.6916  11 C    1 0 0
   2 C    1     1.4445     2.7296  21 C    0 0 0
   2 C    1     1.4445     2.7296   1 C    0 0 0
   2 C    2     2.4564     4.6420  14 C    0 0 0  22 C    0 0 0
   2 C    4     2.4831     4.6925  12 C    0 0 0  12 C    1 0 0  24 C    1 0 0
                                   24 C    0 0 0
   2 C    1     2.8395     5.3659  31 C    1 0 0


 FINAL OPTIMIZED GEOMETRY - DIMENSIONALITY OF THE SYSTEM      1
 (NON PERIODIC DIRECTION: LATTICE PARAMETER FORMALLY SET TO 500)
 *******************************************************************************
 LATTICE PARAMETERS (ANGSTROMS AND DEGREES) - BOHR = 0.5291772083 ANGSTROM
 PRIMITIVE CELL
         A              B              C           ALPHA      BETA       GAMMA 
     4.28851602   500.00000000   500.00000000    90.000000  90.000000  90.000000
 *******************************************************************************
 ATOMS IN THE ASYMMETRIC UNIT    2 - ATOMS IN THE UNIT CELL:   32
     ATOM              X/A             Y(ANGSTROM)         Z(ANGSTROM)   R(ANGS)
 *******************************************************************************
   1 T   6 C    -0.33393544594E+00  0.32094689296E+01  0.20296215431E-06   3.209
   2 T   6 C    -0.16606455406E+00  0.29651581242E+01 -0.12282089293E+01   3.209
   3 F   6 C     0.16606455406E+00  0.12282103985E+01  0.29651627319E+01   3.209
   4 F   6 C     0.33393544594E+00  0.22694339799E+01  0.22694336929E+01   3.209
   5 F   6 C    -0.33393544594E+00 -0.22694373876E+01  0.22694371006E+01   3.209
   6 F   6 C    -0.16606455406E+00 -0.12282085543E+01  0.29651582796E+01   3.209
   7 F   6 C     0.16606455406E+00 -0.29651625766E+01 -0.12282107736E+01   3.209
   8 F   6 C     0.33393544594E+00 -0.32094641104E+01  0.20296215423E-06   3.209
   9 F   6 C    -0.33393544594E+00  0.20296215372E-06 -0.32094689296E+01   3.209
  10 F   6 C    -0.16606455406E+00 -0.12282089293E+01 -0.29651581242E+01   3.209
  11 F   6 C     0.16606455406E+00  0.29651627319E+01 -0.12282103985E+01   3.209
  12 F   6 C     0.33393544594E+00  0.22694336929E+01 -0.22694339799E+01   3.209
  13 F   6 C    -0.33393544594E+00  0.22694371006E+01  0.22694373876E+01   3.209
  14 F   6 C    -0.16606455406E+00  0.29651582796E+01  0.12282085543E+01   3.209
  15 F   6 C     0.16606455406E+00 -0.12282107736E+01  0.29651625766E+01   3.209
  16 F   6 C     0.33393544594E+00  0.20296215333E-06  0.32094641104E+01   3.209
  17 F   6 C    -0.33393544594E+00 -0.32094689296E+01 -0.20296215313E-06   3.209
  18 F   6 C    -0.16606455406E+00 -0.29651581242E+01  0.12282089293E+01   3.209
  19 F   6 C     0.16606455406E+00 -0.12282103985E+01 -0.29651627319E+01   3.209
  20 F   6 C     0.33393544594E+00 -0.22694339799E+01 -0.22694336929E+01   3.209
  21 F   6 C    -0.33393544594E+00  0.22694373876E+01 -0.22694371006E+01   3.209
  22 F   6 C    -0.16606455406E+00  0.12282085543E+01 -0.29651582796E+01   3.209
  23 F   6 C     0.16606455406E+00  0.29651625766E+01  0.12282107736E+01   3.209
  24 F   6 C     0.33393544594E+00  0.32094641104E+01 -0.20296215399E-06   3.209
  25 F   6 C    -0.33393544594E+00 -0.20296215254E-06  0.32094689296E+01   3.209
  26 F   6 C    -0.16606455406E+00  0.12282089293E+01  0.29651581242E+01   3.209
  27 F   6 C     0.16606455406E+00 -0.29651627319E+01  0.12282103985E+01   3.209
  28 F   6 C     0.33393544594E+00 -0.22694336929E+01  0.22694339799E+01   3.209
  29 F   6 C    -0.33393544594E+00 -0.22694371006E+01 -0.22694373876E+01   3.209
  30 F   6 C    -0.16606455406E+00 -0.29651582796E+01 -0.12282085543E+01   3.209
  31 F   6 C     0.16606455406E+00  0.12282107736E+01 -0.29651625766E+01   3.209
  32 F   6 C     0.33393544594E+00 -0.20296215467E-06 -0.32094641104E+01   3.209

 T = ATOM BELONGING TO THE ASYMMETRIC UNIT
 INFORMATION **** fort.34 **** GEOMETRY OUTPUT FILE

 DIRECT LATTICE VECTORS CARTESIAN COMPONENTS (ANGSTROM)
          X                    Y                    Z
   0.428851601638E+01   0.000000000000E+00   0.000000000000E+00
   0.000000000000E+00   0.500000000000E+03   0.000000000000E+00
   0.000000000000E+00   0.000000000000E+00   0.500000000000E+03


 CARTESIAN COORDINATES - PRIMITIVE CELL
 *******************************************************************************
 *      ATOM          X(ANGSTROM)         Y(ANGSTROM)         Z(ANGSTROM)
 *******************************************************************************
   1     6 C     2.856428508022E+00  3.209468929586E+00  2.029621543087E-07
   2     6 C     3.576345516550E+00  2.965158124213E+00 -1.228208929314E+00
   3     6 C     7.121704998315E-01  1.228210398531E+00  2.965162731946E+00
   4     6 C     1.432087508359E+00  2.269433979920E+00  2.269433692888E+00
   5     6 C     2.856428508022E+00 -2.269437387634E+00  2.269437100602E+00
   6     6 C     3.576345516550E+00 -1.228208554289E+00  2.965158279554E+00
   7     6 C     7.121704998315E-01 -2.965162576605E+00 -1.228210773556E+00
   8     6 C     1.432087508359E+00 -3.209464110352E+00  2.029621542256E-07
   9     6 C     2.856428508022E+00  2.029621537236E-07 -3.209468929586E+00
  10     6 C     3.576345516550E+00 -1.228208929314E+00 -2.965158124213E+00
  11     6 C     7.121704998315E-01  2.965162731946E+00 -1.228210398531E+00
  12     6 C     1.432087508359E+00  2.269433692888E+00 -2.269433979920E+00
  13     6 C     2.856428508022E+00  2.269437100602E+00  2.269437387634E+00
  14     6 C     3.576345516550E+00  2.965158279554E+00  1.228208554289E+00
  15     6 C     7.121704998315E-01 -1.228210773556E+00  2.965162576605E+00
  16     6 C     1.432087508359E+00  2.029621533264E-07  3.209464110352E+00
  17     6 C     2.856428508022E+00 -3.209468929586E+00 -2.029621531300E-07
  18     6 C     3.576345516550E+00 -2.965158124213E+00  1.228208929314E+00
  19     6 C     7.121704998315E-01 -1.228210398531E+00 -2.965162731946E+00
  20     6 C     1.432087508359E+00 -2.269433979920E+00 -2.269433692888E+00
  21     6 C     2.856428508022E+00  2.269437387634E+00 -2.269437100602E+00
  22     6 C     3.576345516550E+00  1.228208554289E+00 -2.965158279554E+00
  23     6 C     7.121704998315E-01  2.965162576605E+00  1.228210773556E+00
  24     6 C     1.432087508359E+00  3.209464110352E+00 -2.029621539943E-07
  25     6 C     2.856428508022E+00 -2.029621525359E-07  3.209468929586E+00
  26     6 C     3.576345516550E+00  1.228208929314E+00  2.965158124213E+00
  27     6 C     7.121704998315E-01 -2.965162731946E+00  1.228210398531E+00
  28     6 C     1.432087508359E+00 -2.269433692888E+00  2.269433979920E+00
  29     6 C     2.856428508022E+00 -2.269437100602E+00 -2.269437387634E+00
  30     6 C     3.576345516550E+00 -2.965158279554E+00 -1.228208554289E+00
  31     6 C     7.121704998315E-01  1.228210773556E+00 -2.965162576605E+00
  32     6 C     1.432087508359E+00 -2.029621546734E-07 -3.209464110352E+00

 ****  16 SYMMOPS - TRANSLATORS IN FRACTIONARY UNITS
  V INV                   ROTATION MATRICES                       TRANSLATOR
  1  1  1.00  0.00  0.00  0.00  1.00  0.00  0.00  0.00  1.00    0.00  0.00  0.00
  2 16  1.00  0.00  0.00  0.00  0.38 -0.92  0.00  0.92  0.38    0.50  0.00  0.00
  3 15  1.00  0.00  0.00  0.00 -0.71 -0.71  0.00  0.71 -0.71    1.00  0.00  0.00
  4 14  1.00  0.00  0.00  0.00 -0.92  0.38  0.00 -0.38 -0.92    1.50  0.00  0.00
  5 13  1.00  0.00  0.00  0.00  0.00  1.00  0.00 -1.00  0.00    2.00  0.00  0.00
  6 12  1.00  0.00  0.00  0.00  0.92  0.38  0.00 -0.38  0.92    2.50  0.00  0.00
  7 11  1.00  0.00  0.00  0.00  0.71 -0.71  0.00  0.71  0.71    3.00  0.00  0.00
  8 10  1.00  0.00  0.00  0.00 -0.38 -0.92  0.00  0.92 -0.38    3.50  0.00  0.00
  9  9  1.00  0.00  0.00  0.00 -1.00  0.00  0.00  0.00 -1.00    4.00  0.00  0.00
 10  8  1.00  0.00  0.00  0.00 -0.38  0.92  0.00 -0.92 -0.38    4.50  0.00  0.00
 11  7  1.00  0.00  0.00  0.00  0.71  0.71  0.00 -0.71  0.71    5.00  0.00  0.00
 12  6  1.00  0.00  0.00  0.00  0.92 -0.38  0.00  0.38  0.92    5.50  0.00  0.00
 13  5  1.00  0.00  0.00  0.00  0.00 -1.00  0.00  1.00  0.00    6.00  0.00  0.00
 14  4  1.00  0.00  0.00  0.00 -0.92 -0.38  0.00  0.38 -0.92    6.50  0.00  0.00
 15  3  1.00  0.00  0.00  0.00 -0.71  0.71  0.00 -0.71 -0.71    7.00  0.00  0.00
 16  2  1.00  0.00  0.00  0.00  0.38  0.92  0.00 -0.92  0.38    7.50  0.00  0.00
 TTTTTTTTTTTTTTTTTTTTTTTTTTTTTT END         TELAPSE     1786.16 TCPU     1786.20
 EEEEEEEEEE TERMINATION  DATE 12 08 2009 TIME 13:33:42.9
NODE    0 CPU TIME =      1786.204
    TOTAL CPU TIME =      1786.204
Wed Aug 12 13:33:42 CEST 2009

