date Mon Feb 22 16:23:48 GMT 2010
hostname pcphy162
system Linux pcphy162 2.6.31-19-generic #56-Ubuntu SMP Thu Jan 28 01:26:53 UTC 2010 i686 GNU/Linux
user pc229
executable in /home/pc229/bin/Crystal06/bin/Linux-pgf/v1_0_1
temporary directory /home/pc229/bin/Cry_tmp/tmp4440
output in /home/pc229/tmp/urea_bulk.out
input data /home/pc229/tmp/urea_bulk.d12
Urea bulk (init. geom.: expt.) STO-3G
CRYSTAL
0 0 0
113
5.565  4.684
5
6  0.0         0.5         0.326
8  0.0         0.5         0.5953
7  0.1459      0.6459      0.1766
1  0.2575      0.7575      0.2827
1  0.1441      0.6441     -0.0380
OPTGEOM
FULLOPTG
ENDOPT
END
6  2
1 0 3  2.  0.
1 1 3  4.  0.
7   2
1 0 3 2. 0.
1 1 3 5. 0.
8  2
1 0 3 2.  0.
1 1 3 6.  0.
1 1
1 0 3 1. 0.
99   0
END
TOLINTEG
6 6 6 6 14
SHRINK
4 4
FMIXING
30
END
         
 *******************************************************************************
 *                                                                             *
 *                                CRYSTAL06                                    *
 *                          develop 1.0 - cvs090524                            *
 *                          Sequential executable                              *
 *                                                                             *
 *            Compiled:  20 Jan 2010 10:29                                     *
 *            Xmake: Linux-ifort_pentium4                                      *
 *                                                                             *
 *                                                                             *
 *                              MAIN AUTHORS                                   *
 *                                                                             *
 *    R. DOVESI(1,10), V.R. SAUNDERS(2), C. ROETTI(1,10), R. ORLANDO (1,3),    *
 *  C.M. ZICOVICH-WILSON(1,4), F. PASCALE(5), B. CIVALLERI(1,10), K. DOLL(6),  *
 *       N.M. HARRISON(2,7), I. J. BUSH(2), Ph. D'ARCO(8), M. LLUNELL(9)       *
 *                                                                             *
 * (1) THEORETICAL CHEMISTRY GROUP - UNIVERSITA' DI TORINO - TORINO (ITALY)    *
 *      http://www.crystal.unito.it                                            *
 * (2) COMPUTATIONAL SCIENCE & ENGINEERING DEPARTMENT - CCLRC DARESBURY (UK)   *
 *     http://www.cse.clrc.ac.uk/cmg/CRYSTAL/                                  *
 * (3) UNIVERSITA' DEL PIEMONTE ORIENTALE - ALESSANDRIA (ITALY)                *
 * (4) UNIVERSIDAD AUTONOMA DEL ESTADO DE MORELOS - CUERNAVACA (MEXICO)        *
 * (5) UNIVERSITE' HENRI POINCARE' - NANCY (FRANCE)                            *
 * (6) MPI FUER FESTKOERPERFORSCHUNG - STUTTGART (GERMANY)                     *
 * (7) IMPERIAL COLLEGE - LONDON (UK)                                          *
 * (8) UNIVERSITE' PIERRE ET MARIE CURIE - PARIS (FRANCE)                      *
 * (9) UNIVERSIDAD DE BARCELONA - BARCELONA (SPAIN)                            *
 *(10) NIS - NANOSTRUCTURED INTERFACES AND SURFACES - TORINO (ITALY)           *
 *     http://www.crystal.unito.it                                             *
 *******************************************************************************
 EEEEEEEEEE STARTING  DATE 23 02 2010 TIME 10:14:45.8
 Urea bulk (init. geom.: expt.) STO-3G                                           

 CRYSTAL CALCULATION
 (INPUT ACCORDING TO THE INTERNATIONAL TABLES FOR X-RAY CRYSTALLOGRAPHY)
 CRYSTAL FAMILY                       :  TETRAGONAL  
 CRYSTAL CLASS  (GROTH - 1921)        :  TETRAGONAL SCALENOHEDRAL             

 SPACE GROUP (NONCENTROSYMMETRIC)     :  P -4 21 M       

 LATTICE PARAMETERS  (ANGSTROMS AND DEGREES) - CONVENTIONAL CELL
        A           B           C        ALPHA        BETA       GAMMA
     5.56500     5.56500     4.68400    90.00000    90.00000    90.00000


 NUMBER OF IRREDUCIBLE ATOMS IN THE CONVENTIONAL CELL:    5

 INPUT COORDINATES

 ATOM AT. N.              COORDINATES
   1   6     0.000000000000E+00  5.000000000000E-01  3.260000000000E-01
   2   8     0.000000000000E+00  5.000000000000E-01  5.953000000000E-01
   3   7     1.459000000000E-01  6.459000000000E-01  1.766000000000E-01
   4   1     2.575000000000E-01  7.575000000000E-01  2.827000000000E-01
   5   1     1.441000000000E-01  6.441000000000E-01 -3.800000000000E-02

 *******************************************************************************

 << INFORMATION >>: FROM NOW ON, ALL COORDINATES REFER TO THE PRIMITIVE CELL

 *******************************************************************************

 LATTICE PARAMETERS  (ANGSTROMS AND DEGREES) - PRIMITIVE CELL
       A          B          C         ALPHA     BETA     GAMMA        VOLUME
    5.56500    5.56500    4.68400    90.00000  90.00000  90.00000    145.059850

 COORDINATES OF THE EQUIVALENT ATOMS (FRACTIONARY UNITS)

 N. ATOM EQUIV AT. N.          X                  Y                  Z

   1   1   1    6 C     0.00000000000E+00 -5.00000000000E-01  3.26000000000E-01
   2   1   2    6 C    -5.00000000000E-01  0.00000000000E+00 -3.26000000000E-01

   3   2   1    8 O     0.00000000000E+00 -5.00000000000E-01 -4.04700000000E-01
   4   2   2    8 O    -5.00000000000E-01  0.00000000000E+00  4.04700000000E-01

   5   3   1    7 N     1.45900000000E-01 -3.54100000000E-01  1.76600000000E-01
   6   3   2    7 N    -1.45900000000E-01  3.54100000000E-01  1.76600000000E-01
   7   3   3    7 N    -3.54100000000E-01 -1.45900000000E-01 -1.76600000000E-01
   8   3   4    7 N     3.54100000000E-01  1.45900000000E-01 -1.76600000000E-01

   9   4   1    1 H     2.57500000000E-01 -2.42500000000E-01  2.82700000000E-01
  10   4   2    1 H    -2.57500000000E-01  2.42500000000E-01  2.82700000000E-01
  11   4   3    1 H    -2.42500000000E-01 -2.57500000000E-01 -2.82700000000E-01
  12   4   4    1 H     2.42500000000E-01  2.57500000000E-01 -2.82700000000E-01

  13   5   1    1 H     1.44100000000E-01 -3.55900000000E-01 -3.80000000000E-02
  14   5   2    1 H    -1.44100000000E-01  3.55900000000E-01 -3.80000000000E-02
  15   5   3    1 H    -3.55900000000E-01 -1.44100000000E-01  3.80000000000E-02
  16   5   4    1 H     3.55900000000E-01  1.44100000000E-01  3.80000000000E-02

 NUMBER OF SYMMETRY OPERATORS         :    8
 *******************************************************************************
 * GEOMETRY EDITING - INPUT COORDINATES ARE GIVEN IN ANGSTROM          
 *******************************************************************************

 GEOMETRY NOW FULLY CONSISTENT WITH THE GROUP
 INFORMATION **** FULLOPTG **** FULL OPTIMIZATION (ATOMS AND CELL PARAMETERS
 *******************************************************************************
 COMBINED CELL/ATOM OPTIMIZATION CONTROL

 MAXIMUM GRADIENT COMPONENT   0.00045 MAXIMUM DISPLACEMENT COMPONENT     0.00180
 R.M.S. OF GRADIENT COMPONENT 0.00030 R.M.S. OF DISPLACEMENT COMPONENTS  0.00120
 THRESHOLD ON ENERGY CHANGE 0.100E-06 EXTRAPOLATING POLYNOMIAL ORDER           2
 MAXIMUM ALLOWED NUMBER OF STEPS  100 SORTING OF ENERGY POINTS:               NO
 ANALYTICAL  GRADIENT                 HESSIAN UPDATING                      BFGS
 STEP SIZE NUMERICAL GRADIENT 0.00100
 INITIAL HESSIAN MATRIX: SCHLEGEL MODEL 2
 *******************************************************************************


 GCALCO - MAX INDICES DIRECT LATTICE VECTOR    14    14    16
 NO.OF VECTORS CREATED 6999 STARS  525 RMAX   117.81283 BOHR

 GEOMETRY FOR WAVE FUNCTION - DIMENSIONALITY OF THE SYSTEM    3
 (NON PERIODIC DIRECTION: LATTICE PARAMETER FORMALLY SET TO 500)
 *******************************************************************************
 LATTICE PARAMETERS (ANGSTROMS AND DEGREES) - BOHR = 0.5291772083 ANGSTROM
 PRIMITIVE CELL - CENTRING CODE 1/0 VOLUME=   145.059850 - DENSITY  1.374 g/cm^3
         A              B              C           ALPHA      BETA       GAMMA 
     5.56500000     5.56500000     4.68400000    90.000000  90.000000  90.000000
 *******************************************************************************
 ATOMS IN THE ASYMMETRIC UNIT    5 - ATOMS IN THE UNIT CELL:   16
     ATOM              X/A                 Y/B                 Z/C    
 *******************************************************************************
   1 T   6 C     0.000000000000E+00  5.000000000000E-01  3.260000000000E-01
   2 F   6 C    -5.000000000000E-01  0.000000000000E+00 -3.260000000000E-01
   3 T   8 O     0.000000000000E+00  5.000000000000E-01 -4.047000000000E-01
   4 F   8 O    -5.000000000000E-01  0.000000000000E+00  4.047000000000E-01
   5 T   7 N     1.459000000000E-01 -3.541000000000E-01  1.766000000000E-01
   6 F   7 N    -1.459000000000E-01  3.541000000000E-01  1.766000000000E-01
   7 F   7 N    -3.541000000000E-01 -1.459000000000E-01 -1.766000000000E-01
   8 F   7 N     3.541000000000E-01  1.459000000000E-01 -1.766000000000E-01
   9 T   1 H     2.575000000000E-01 -2.425000000000E-01  2.827000000000E-01
  10 F   1 H    -2.575000000000E-01  2.425000000000E-01  2.827000000000E-01
  11 F   1 H    -2.425000000000E-01 -2.575000000000E-01 -2.827000000000E-01
  12 F   1 H     2.425000000000E-01  2.575000000000E-01 -2.827000000000E-01
  13 T   1 H     1.441000000000E-01 -3.559000000000E-01 -3.800000000000E-02
  14 F   1 H    -1.441000000000E-01  3.559000000000E-01 -3.800000000000E-02
  15 F   1 H    -3.559000000000E-01 -1.441000000000E-01  3.800000000000E-02
  16 F   1 H     3.559000000000E-01  1.441000000000E-01  3.800000000000E-02

 T = ATOM BELONGING TO THE ASYMMETRIC UNIT

 ****   8 SYMMOPS - TRANSLATORS IN FRACTIONARY UNITS
  V INV                   ROTATION MATRICES                       TRANSLATOR
  1  1  1.00  0.00  0.00  0.00  1.00  0.00  0.00  0.00  1.00    0.00  0.00  0.00
  2  2 -1.00  0.00  0.00  0.00 -1.00  0.00  0.00  0.00  1.00    0.00  0.00  0.00
  3  3  1.00  0.00  0.00  0.00 -1.00  0.00  0.00  0.00 -1.00    0.50  0.50  0.00
  4  4 -1.00  0.00  0.00  0.00  1.00  0.00  0.00  0.00 -1.00    0.50  0.50  0.00
  5  5  0.00  1.00  0.00  1.00  0.00  0.00  0.00  0.00  1.00    0.50  0.50  0.00
  6  6  0.00 -1.00  0.00 -1.00  0.00  0.00  0.00  0.00  1.00    0.50  0.50  0.00
  7  8  0.00 -1.00  0.00  1.00  0.00  0.00  0.00  0.00 -1.00    0.00  0.00  0.00
  8  7  0.00  1.00  0.00 -1.00  0.00  0.00  0.00  0.00 -1.00    0.00  0.00  0.00

 DIRECT LATTICE VECTORS CARTESIAN COMPONENTS (ANGSTROM)
          X                    Y                    Z
   0.556500000000E+01   0.000000000000E+00   0.000000000000E+00
   0.000000000000E+00   0.556500000000E+01   0.000000000000E+00
   0.000000000000E+00   0.000000000000E+00   0.468400000000E+01


 CARTESIAN COORDINATES - PRIMITIVE CELL
 *******************************************************************************
 *      ATOM          X(ANGSTROM)         Y(ANGSTROM)         Z(ANGSTROM)
 *******************************************************************************
   1     6 C     0.000000000000E+00  2.782500000000E+00  1.526984000000E+00
   2     6 C     2.782500000000E+00  0.000000000000E+00 -1.526984000000E+00
   3     8 O     0.000000000000E+00  2.782500000000E+00 -1.895614800000E+00
   4     8 O     2.782500000000E+00  0.000000000000E+00  1.895614800000E+00
   5     7 N     8.119335000000E-01 -1.970566500000E+00  8.271944000000E-01
   6     7 N    -8.119335000000E-01  1.970566500000E+00  8.271944000000E-01
   7     7 N    -1.970566500000E+00 -8.119335000000E-01 -8.271944000000E-01
   8     7 N     1.970566500000E+00  8.119335000000E-01 -8.271944000000E-01
   9     1 H     1.432987500000E+00 -1.349512500000E+00  1.324166800000E+00
  10     1 H    -1.432987500000E+00  1.349512500000E+00  1.324166800000E+00
  11     1 H    -1.349512500000E+00 -1.432987500000E+00 -1.324166800000E+00
  12     1 H     1.349512500000E+00  1.432987500000E+00 -1.324166800000E+00
  13     1 H     8.019165000000E-01 -1.980583500000E+00 -1.779920000000E-01
  14     1 H    -8.019165000000E-01  1.980583500000E+00 -1.779920000000E-01
  15     1 H    -1.980583500000E+00 -8.019165000000E-01  1.779920000000E-01
  16     1 H     1.980583500000E+00  8.019165000000E-01  1.779920000000E-01

 *******************************************************************************
 LOCAL ATOMIC FUNCTIONS BASIS SET
 *******************************************************************************
   ATOM  X(AU)  Y(AU)  Z(AU)    NO. TYPE  EXPONENT  S COEF   P COEF   D/F/G COEF
 *******************************************************************************
   1 C   0.000  5.258  2.886
                                  1 S  
                                         7.162E+01 1.543E-01 0.000E+00 0.000E+00
                                         1.305E+01 5.353E-01 0.000E+00 0.000E+00
                                         3.531E+00 4.446E-01 0.000E+00 0.000E+00
                             2-   5 SP 
                                         2.941E+00-9.997E-02 1.559E-01 0.000E+00
                                         6.835E-01 3.995E-01 6.077E-01 0.000E+00
                                         2.223E-01 7.001E-01 3.920E-01 0.000E+00
   2 C   5.258  0.000 -2.886
   3 O   0.000  5.258 -3.582
                                 11 S  
                                         1.307E+02 1.543E-01 0.000E+00 0.000E+00
                                         2.381E+01 5.353E-01 0.000E+00 0.000E+00
                                         6.444E+00 4.446E-01 0.000E+00 0.000E+00
                            12-  15 SP 
                                         5.033E+00-9.997E-02 1.559E-01 0.000E+00
                                         1.170E+00 3.995E-01 6.077E-01 0.000E+00
                                         3.804E-01 7.001E-01 3.920E-01 0.000E+00
   4 O   5.258  0.000  3.582
   5 N   1.534 -3.724  1.563
                                 21 S  
                                         9.911E+01 1.543E-01 0.000E+00 0.000E+00
                                         1.805E+01 5.353E-01 0.000E+00 0.000E+00
                                         4.886E+00 4.446E-01 0.000E+00 0.000E+00
                            22-  25 SP 
                                         3.780E+00-9.997E-02 1.559E-01 0.000E+00
                                         8.785E-01 3.995E-01 6.077E-01 0.000E+00
                                         2.857E-01 7.001E-01 3.920E-01 0.000E+00
   6 N  -1.534  3.724  1.563
   7 N  -3.724 -1.534 -1.563
   8 N   3.724  1.534 -1.563
   9 H   2.708 -2.550  2.502
                                 41 S  
                                         3.425E+00 1.543E-01 0.000E+00 0.000E+00
                                         6.239E-01 5.353E-01 0.000E+00 0.000E+00
                                         1.689E-01 4.446E-01 0.000E+00 0.000E+00
  10 H  -2.708  2.550  2.502
  11 H  -2.550 -2.708 -2.502
  12 H   2.550  2.708 -2.502
  13 H   1.515 -3.743 -0.336
  14 H  -1.515  3.743 -0.336
  15 H  -3.743 -1.515  0.336
  16 H   3.743  1.515  0.336
 INFORMATION **** TOLINTEG **** COULOMB AND EXCHANGE SERIES TOLERANCES MODIFIED
 *******************************************************************************
 N. OF ATOMS PER CELL       16  COULOMB OVERLAP TOL         (T1) 10** -6
 NUMBER OF SHELLS           24  COULOMB PENETRATION TOL     (T2) 10** -6
 NUMBER OF AO               48  EXCHANGE OVERLAP TOL        (T3) 10** -6
 N. OF ELECTRONS PER CELL   64  EXCHANGE PSEUDO OVP (F(G))  (T4) 10** -6
 CORE ELECTRONS PER CELL    16  EXCHANGE PSEUDO OVP (P(G))  (T5) 10**-14
 N. OF SYMMETRY OPERATORS    8  POLE ORDER IN MONO ZONE                4
 *******************************************************************************
 TYPE OF CALCULATION :  RESTRICTED CLOSED SHELL
 HARTREE-FOCK HAMILTONIAN

 CAPPA:IS1  4;IS2  4;IS3  4; K PTS MONK NET   18; SYMMOPS: K SPACE 16;G SPACE  8

 *******************************************************************************
 MAX NUMBER OF SCF CYCLES      50  CONVERGENCE ON DELTAP        10**-16
 WEIGHT OF F(I) IN F(I+1)      30% CONVERGENCE ON ENERGY        10**- 7
 SHRINK. FACT.(MONKH.)    4  4  4  NUMBER OF K POINTS IN THE IBZ     18
 SHRINKING FACTOR(GILAT NET)    4  NUMBER OF K POINTS(GILAT NET)     18
 *******************************************************************************
 *** K POINTS COORDINATES (OBLIQUE COORDINATES IN UNITS OF IS =  4)
   1-R(  0  0  0)   2-C(  1  0  0)   3-R(  2  0  0)   4-C(  1  1  0)
   5-C(  2  1  0)   6-R(  2  2  0)   7-C(  0  0  1)   8-C(  1  0  1)
   9-C(  2  0  1)  10-C(  1  1  1)  11-C(  2  1  1)  12-C(  2  2  1)
  13-R(  0  0  2)  14-C(  1  0  2)  15-R(  2  0  2)  16-C(  1  1  2)
  17-C(  2  1  2)  18-R(  2  2  2)

 DIRECT LATTICE VECTORS COMPON. (A.U.)     RECIP. LATTICE VECTORS COMPON. (A.U.) 
        X            Y            Z              X            Y            Z
   10.5163259    0.0000000    0.0000000      0.5974696    0.0000000    0.0000000
    0.0000000   10.5163259    0.0000000      0.0000000    0.5974696    0.0000000
    0.0000000    0.0000000    8.8514772      0.0000000    0.0000000    0.7098460

 DISK SPACE FOR EIGENVECTORS (FTN 10)      69120 REALS

 SYMMETRY ADAPTION OF THE BLOCH FUNCTIONS ENABLED

 DIMENSIONS  P(G)=   33336 F(G)=    4606 P(G),F(G) (IRR)    3425
 MAX G-VECTOR INDEX FOR 1- AND 2-ELECTRON INTEGRALS  89

 INFORMATION **** GENBUF **** COULOMB BIPO BUFFER LENGTH (WORDS) =      114750
 TTTTTTTTTTTTTTTTTTTTTTTTTTTTTT INPUT       TELAPSE        0.01 TCPU        0.01

 NEIGHBORS OF THE NON-EQUIVALENT ATOMS

 N = NUMBER OF NEIGHBORS AT DISTANCE R
    ATOM  N     R/ANG      R/AU   NEIGHBORS (ATOM LABELS AND CELL INDICES)
   1 C    1     1.2614     2.3837   3 O    0 0 1
   1 C    2     1.3447     2.5411   5 N    0 1 0   6 N    0 0 0
   1 C    2     2.0367     3.8488   9 H    0 1 0  10 H    0 0 0
   1 C    2     2.0477     3.8696  13 H    0 1 0  14 H    0 0 0
   1 C    2     2.6461     5.0004  11 H    0 1 1  12 H    0 0 1
   1 C    2     3.1089     5.8750  15 H    0 1 0  16 H    0 0 0

   3 O    1     1.2614     2.3837   1 C    0 0-1
   3 O    2     1.9922     3.7647  11 H    0 1 0  12 H    0 0 0
   3 O    2     2.0582     3.8895  13 H    0 1 0  14 H    0 0 0
   3 O    2     2.2726     4.2946   5 N    0 1-1   6 N    0 0-1
   3 O    2     2.5002     4.7246   9 H    0 1-1  10 H    0 0-1
   3 O    2     2.9550     5.5842   5 N    0 1 0   6 N    0 0 0

   5 N    1     1.0053     1.8997  13 H    0 0 0
   5 N    1     1.0092     1.9070   9 H    0 0 0
   5 N    1     1.3447     2.5411   1 C    0-1 0
   5 N    1     2.2726     4.2946   3 O    0-1 1
   5 N    1     2.2965     4.3397   6 N    0-1 0
   5 N    1     2.4939     4.7127  14 H    0-1 0

   9 H    1     1.0092     1.9070   5 N    0 0 0
   9 H    1     1.7473     3.3019  13 H    0 0 0
   9 H    1     1.9922     3.7647   4 O    0 0 0
   9 H    1     2.0367     3.8488   1 C    0-1 0
   9 H    2     2.4984     4.7214  15 H    1 0 0  16 H    0 0 0
   9 H    1     2.5002     4.7246   3 O    0-1 1

  13 H    1     1.0053     1.8997   5 N    0 0 0
  13 H    1     1.7473     3.3019   9 H    0 0 0
  13 H    1     2.0477     3.8696   1 C    0-1 0
  13 H    1     2.0582     3.8895   3 O    0-1 0
  13 H    1     2.2682     4.2862  14 H    0-1 0
  13 H    1     2.4939     4.7127   6 N    0-1 0


 SYMMETRY ALLOWED ELASTIC DISTORTION 1
  0.5773503  0.0000000  0.0000000
  0.0000000  0.5773503  0.0000000
  0.0000000  0.0000000  0.5773503

 SYMMETRY ALLOWED ELASTIC DISTORTION 2
  0.4082483  0.0000000  0.0000000
  0.0000000  0.4082483  0.0000000
  0.0000000  0.0000000 -0.8164966

 SYMMETRY ALLOWED INTERNAL DEGREE(S) OF FREEDOM:   8
 TTTTTTTTTTTTTTTTTTTTTTTTTTTTTT SYMM        TELAPSE        0.01 TCPU        0.01
 TTTTTTTTTTTTTTTTTTTTTTTTTTTTTT INT_SCREEN  TELAPSE        0.02 TCPU        0.02
 *******************************************************************************
 COORDINATE AND CELL OPTIMIZATION - POINT    1
 INFORMATION **** GENBUF **** COULOMB BIPO BUFFER LENGTH (WORDS) =      114750
 INFORMATION **** EXCBUF **** EXCH. BIPO BUFFER: WORDS USED =       86157
 TTTTTTTTTTTTTTTTTTTTTTTTTTTTTT MONIRR      TELAPSE        0.06 TCPU        0.06

  GAUSS70 FOR COULOMB   GAUSS70 FOR EXCHANGE
 **SHELL_ORTHODOX** SPACE FOR BIEL. INTEGRALS     3 BUFFERS
 TTTTTTTTTTTTTTTTTTTTTTTTTTTTTT SHLC        TELAPSE        4.17 TCPU        3.53
 TTTTTTTTTTTTTTTTTTTTTTTTTTTTTT MONMAD      TELAPSE        4.53 TCPU        3.89
 TTTTTTTTTTTTTTTTTTTTTTTTTTTTTT INT_CALC    TELAPSE        4.53 TCPU        3.89

 *******************************************************************************
 Urea bulk (init. geom.: expt.) STO-3G                                           
 CRYSTAL - SCF - TYPE OF CALCULATION :  RESTRICTED CLOSED SHELL
 *******************************************************************************

 CAPPA:IS1  4;IS2  4;IS3  4; K PTS MONK NET   18; SYMMOPS: K SPACE 16;G SPACE  8

 TTTTTTTTTTTTTTTTTTTTTTTTTTTTTT SDIK        TELAPSE        4.55 TCPU        3.90

 AAAAAAAAAAAAAAAAAAAAAAAAAAAAAAAAAAAAAAAAAAAAAAAAAAAAAAAAAAAAAAAAAAAAAAAAAAAAAAA
         ATOMIC WAVEFUNCTION(S)


 NUCLEAR CHARGE  6.0  SYMMETRY SPECIES            S    P
 N. ELECTRONS    6.0  NUMBER OF PRIMITIVE GTOS    6    3
                      NUMBER OF CONTRACTED GTOS   2    1
                      NUMBER OF CLOSED SHELLS     2    0
                      OPEN SHELL OCCUPATION       0    2

  ZNUC SCFIT  TOTAL HF ENERGY   KINETIC ENERGY   VIRIAL THEOREM ACCURACY
   6.0   1   -3.719839255E+01  3.792455700E+01 -1.980852394E+00  0.0E+00

 NUCLEAR CHARGE  8.0  SYMMETRY SPECIES            S    P
 N. ELECTRONS    8.0  NUMBER OF PRIMITIVE GTOS    6    3
                      NUMBER OF CONTRACTED GTOS   2    1
                      NUMBER OF CLOSED SHELLS     2    0
                      OPEN SHELL OCCUPATION       0    4

  ZNUC SCFIT  TOTAL HF ENERGY   KINETIC ENERGY   VIRIAL THEOREM ACCURACY
   8.0   1   -7.380415026E+01  7.344496710E+01 -2.004890507E+00  0.0E+00

 NUCLEAR CHARGE  7.0  SYMMETRY SPECIES            S    P
 N. ELECTRONS    7.0  NUMBER OF PRIMITIVE GTOS    6    3
                      NUMBER OF CONTRACTED GTOS   2    1
                      NUMBER OF CLOSED SHELLS     2    0
                      OPEN SHELL OCCUPATION       0    3

  ZNUC SCFIT  TOTAL HF ENERGY   KINETIC ENERGY   VIRIAL THEOREM ACCURACY
   7.0   1   -5.371901019E+01  5.366407314E+01 -2.001023721E+00  0.0E+00

 NUCLEAR CHARGE  1.0  SYMMETRY SPECIES            S
 N. ELECTRONS    1.0  NUMBER OF PRIMITIVE GTOS    3
                      NUMBER OF CONTRACTED GTOS   1
                      NUMBER OF CLOSED SHELLS     0
                      OPEN SHELL OCCUPATION       1

  ZNUC SCFIT  TOTAL HF ENERGY   KINETIC ENERGY   VIRIAL THEOREM ACCURACY
   1.0   1   -4.665818504E-01  7.600318799E-01 -1.613897736E+00  0.0E+00

 AAAAAAAAAAAAAAAAAAAAAAAAAAAAAAAAAAAAAAAAAAAAAAAAAAAAAAAAAAAAAAAAAAAAAAAAAAAAAAA

 CHARGE NORMALIZATION FACTOR   1.00000000
 TOTAL ATOMIC CHARGES:
   6.0000000   6.0000000   8.0000000   8.0000000   7.0000000   7.0000000
   7.0000000   7.0000000   1.0000000   1.0000000   1.0000000   1.0000000
   1.0000000   1.0000000   1.0000000   1.0000000
 TTTTTTTTTTTTTTTTTTTTTTTTTTTTTT QGAM        TELAPSE        4.55 TCPU        3.90
 TTTTTTTTTTTTTTTTTTTTTTTTTTTTTT BIEL        TELAPSE        4.62 TCPU        3.97
 TTTTTTTTTTTTTTTTTTTTTTTTTTTTTT TOTENY      TELAPSE        4.62 TCPU        3.98
 CYC   0 ETOT(AU) -4.423447953696E+02 DETOT -4.42E+02 tst  0.00E+00 PX  1.00E+00
 TTTTTTTTTTTTTTTTTTTTTTTTTTTTTT FDIK        TELAPSE        4.65 TCPU        4.01
 INSULATING STATE
 TOP OF VALENCE BANDS -    BAND     32; K    1; EIG -1.2307457E-01 AU
 BOTTOM OF VIRTUAL BANDS - BAND     33; K    4; EIG  3.2226201E-01 AU
 BOTTOM OF VIRTUAL BANDS - BAND     33; K    1; EIG  3.2293239E-01 AU
 TTTTTTTTTTTTTTTTTTTTTTTTTTTTTT PDIG        TELAPSE        4.67 TCPU        4.02
 CHARGE NORMALIZATION FACTOR   1.00000000
 TOTAL ATOMIC CHARGES:
   4.9982460   4.9982460   8.9210089   8.9210089   7.5884222   7.5884222
   7.5884222   7.5884222   0.7280980   0.7280980   0.7280980   0.7280980
   0.7238524   0.7238524   0.7238524   0.7238524
 TTTTTTTTTTTTTTTTTTTTTTTTTTTTTT QGAM        TELAPSE        4.67 TCPU        4.02
 TTTTTTTTTTTTTTTTTTTTTTTTTTTTTT BIEL        TELAPSE        4.72 TCPU        4.08
 TTTTTTTTTTTTTTTTTTTTTTTTTTTTTT TOTENY      TELAPSE        4.73 TCPU        4.08
 CYC   1 ETOT(AU) -4.418621531953E+02 DETOT  4.83E-01 tst  0.00E+00 PX  1.00E+00
 TTTTTTTTTTTTTTTTTTTTTTTTTTTTTT FDIK        TELAPSE        4.75 TCPU        4.10
 INSULATING STATE
 TOP OF VALENCE BANDS -    BAND     32; K   13; EIG -1.8303653E-01 AU
 TOP OF VALENCE BANDS -    BAND     32; K    1; EIG -2.0557920E-01 AU
 BOTTOM OF VIRTUAL BANDS - BAND     33; K    4; EIG  3.1487293E-01 AU
 BOTTOM OF VIRTUAL BANDS - BAND     33; K    1; EIG  3.1709726E-01 AU
 TTTTTTTTTTTTTTTTTTTTTTTTTTTTTT PDIG        TELAPSE        4.76 TCPU        4.12
 CHARGE NORMALIZATION FACTOR   1.00000000
 TOTAL ATOMIC CHARGES:
   5.5589775   5.5589775   8.4549880   8.4549880   7.5153881   7.5153881
   7.5153881   7.5153881   0.7386208   0.7386208   0.7386208   0.7386208
   0.7390084   0.7390084   0.7390084   0.7390084
 TTTTTTTTTTTTTTTTTTTTTTTTTTTTTT QGAM        TELAPSE        4.76 TCPU        4.12
 TTTTTTTTTTTTTTTTTTTTTTTTTTTTTT BIEL        TELAPSE        4.82 TCPU        4.18
 TTTTTTTTTTTTTTTTTTTTTTTTTTTTTT TOTENY      TELAPSE        4.82 TCPU        4.18
 CYC   2 ETOT(AU) -4.420566694457E+02 DETOT -1.95E-01 tst  7.42E-03 PX  2.48E-01
 TTTTTTTTTTTTTTTTTTTTTTTTTTTTTT FDIK        TELAPSE        4.84 TCPU        4.20
 INSULATING STATE
 TOP OF VALENCE BANDS -    BAND     32; K   13; EIG -2.5600279E-01 AU
 TOP OF VALENCE BANDS -    BAND     32; K    1; EIG -2.5930503E-01 AU
 BOTTOM OF VIRTUAL BANDS - BAND     33; K    4; EIG  3.3878227E-01 AU
 BOTTOM OF VIRTUAL BANDS - BAND     33; K    1; EIG  3.4097369E-01 AU
 TTTTTTTTTTTTTTTTTTTTTTTTTTTTTT PDIG        TELAPSE        4.85 TCPU        4.21
 CHARGE NORMALIZATION FACTOR   1.00000000
 TOTAL ATOMIC CHARGES:
   5.5724399   5.5724399   8.4476287   8.4476287   7.4792563   7.4792563
   7.4792563   7.4792563   0.7552873   0.7552873   0.7552873   0.7552873
   0.7554221   0.7554221   0.7554221   0.7554221
 TTTTTTTTTTTTTTTTTTTTTTTTTTTTTT QGAM        TELAPSE        4.86 TCPU        4.21
 TTTTTTTTTTTTTTTTTTTTTTTTTTTTTT BIEL        TELAPSE        4.91 TCPU        4.27
 TTTTTTTTTTTTTTTTTTTTTTTTTTTTTT TOTENY      TELAPSE        4.92 TCPU        4.27
 CYC   3 ETOT(AU) -4.420658054154E+02 DETOT -9.14E-03 tst  1.82E-04 PX  4.02E-02
 TTTTTTTTTTTTTTTTTTTTTTTTTTTTTT FDIK        TELAPSE        4.93 TCPU        4.29
 INSULATING STATE
 TOP OF VALENCE BANDS -    BAND     32; K    1; EIG -2.7576503E-01 AU
 BOTTOM OF VIRTUAL BANDS - BAND     33; K    4; EIG  3.4542217E-01 AU
 BOTTOM OF VIRTUAL BANDS - BAND     33; K    1; EIG  3.4761085E-01 AU
 TTTTTTTTTTTTTTTTTTTTTTTTTTTTTT PDIG        TELAPSE        4.95 TCPU        4.30
 CHARGE NORMALIZATION FACTOR   1.00000000
 TOTAL ATOMIC CHARGES:
   5.5743506   5.5743506   8.4362507   8.4362507   7.4726540   7.4726540
   7.4726540   7.4726540   0.7609876   0.7609876   0.7609876   0.7609876
   0.7610578   0.7610578   0.7610578   0.7610578
 TTTTTTTTTTTTTTTTTTTTTTTTTTTTTT QGAM        TELAPSE        4.95 TCPU        4.31
 TTTTTTTTTTTTTTTTTTTTTTTTTTTTTT BIEL        TELAPSE        5.01 TCPU        4.36
 TTTTTTTTTTTTTTTTTTTTTTTTTTTTTT TOTENY      TELAPSE        5.01 TCPU        4.37
 CYC   4 ETOT(AU) -4.420683066086E+02 DETOT -2.50E-03 tst  9.59E-05 PX  1.58E-02
 TTTTTTTTTTTTTTTTTTTTTTTTTTTTTT FDIK        TELAPSE        5.04 TCPU        4.39
 INSULATING STATE
 TOP OF VALENCE BANDS -    BAND     32; K    1; EIG -2.8212982E-01 AU
 BOTTOM OF VIRTUAL BANDS - BAND     33; K    4; EIG  3.4705758E-01 AU
 BOTTOM OF VIRTUAL BANDS - BAND     33; K    1; EIG  3.4923684E-01 AU
 TTTTTTTTTTTTTTTTTTTTTTTTTTTTTT PDIG        TELAPSE        5.05 TCPU        4.40
 CHARGE NORMALIZATION FACTOR   1.00000000
 TOTAL ATOMIC CHARGES:
   5.5741710   5.5741710   8.4309681   8.4309681   7.4698055   7.4698055
   7.4698055   7.4698055   0.7639135   0.7639135   0.7639135   0.7639135
   0.7637115   0.7637115   0.7637115   0.7637115
 TTTTTTTTTTTTTTTTTTTTTTTTTTTTTT QGAM        TELAPSE        5.05 TCPU        4.40
 TTTTTTTTTTTTTTTTTTTTTTTTTTTTTT BIEL        TELAPSE        5.11 TCPU        4.46
 TTTTTTTTTTTTTTTTTTTTTTTTTTTTTT TOTENY      TELAPSE        5.11 TCPU        4.47
 CYC   5 ETOT(AU) -4.420691189030E+02 DETOT -8.12E-04 tst  3.63E-05 PX  8.88E-03
 TTTTTTTTTTTTTTTTTTTTTTTTTTTTTT FDIK        TELAPSE        5.13 TCPU        4.48
 INSULATING STATE
 TOP OF VALENCE BANDS -    BAND     32; K    1; EIG -2.8467766E-01 AU
 BOTTOM OF VIRTUAL BANDS - BAND     33; K    4; EIG  3.4735317E-01 AU
 BOTTOM OF VIRTUAL BANDS - BAND     33; K    1; EIG  3.4952822E-01 AU
 TTTTTTTTTTTTTTTTTTTTTTTTTTTTTT PDIG        TELAPSE        5.14 TCPU        4.50
 CHARGE NORMALIZATION FACTOR   1.00000000
 TOTAL ATOMIC CHARGES:
   5.5741497   5.5741497   8.4279644   8.4279644   7.4684478   7.4684478
   7.4684478   7.4684478   0.7654922   0.7654922   0.7654922   0.7654922
   0.7650030   0.7650030   0.7650030   0.7650030
 TTTTTTTTTTTTTTTTTTTTTTTTTTTTTT QGAM        TELAPSE        5.15 TCPU        4.50
 TTTTTTTTTTTTTTTTTTTTTTTTTTTTTT BIEL        TELAPSE        5.22 TCPU        4.56
 TTTTTTTTTTTTTTTTTTTTTTTTTTTTTT TOTENY      TELAPSE        5.22 TCPU        4.56
 CYC   6 ETOT(AU) -4.420694046826E+02 DETOT -2.86E-04 tst  1.48E-05 PX  5.55E-03
 TTTTTTTTTTTTTTTTTTTTTTTTTTTTTT FDIK        TELAPSE        5.24 TCPU        4.58
 INSULATING STATE
 TOP OF VALENCE BANDS -    BAND     32; K    1; EIG -2.8576849E-01 AU
 BOTTOM OF VIRTUAL BANDS - BAND     33; K    4; EIG  3.4734949E-01 AU
 BOTTOM OF VIRTUAL BANDS - BAND     33; K    1; EIG  3.4952420E-01 AU
 TTTTTTTTTTTTTTTTTTTTTTTTTTTTTT PDIG        TELAPSE        5.25 TCPU        4.60
 CHARGE NORMALIZATION FACTOR   1.00000000
 TOTAL ATOMIC CHARGES:
   5.5742085   5.5742085   8.4262419   8.4262419   7.4677171   7.4677171
   7.4677171   7.4677171   0.7663967   0.7663967   0.7663967   0.7663967
   0.7656610   0.7656610   0.7656610   0.7656610
 TTTTTTTTTTTTTTTTTTTTTTTTTTTTTT QGAM        TELAPSE        5.26 TCPU        4.60
 TTTTTTTTTTTTTTTTTTTTTTTTTTTTTT BIEL        TELAPSE        5.32 TCPU        4.66
 TTTTTTTTTTTTTTTTTTTTTTTTTTTTTT TOTENY      TELAPSE        5.33 TCPU        4.67
 CYC   7 ETOT(AU) -4.420695117139E+02 DETOT -1.07E-04 tst  6.13E-06 PX  3.50E-03
 TTTTTTTTTTTTTTTTTTTTTTTTTTTTTT FDIK        TELAPSE        5.34 TCPU        4.68
 INSULATING STATE
 TOP OF VALENCE BANDS -    BAND     32; K    1; EIG -2.8626350E-01 AU
 BOTTOM OF VIRTUAL BANDS - BAND     33; K    4; EIG  3.4730126E-01 AU
 BOTTOM OF VIRTUAL BANDS - BAND     33; K    1; EIG  3.4947736E-01 AU
 TTTTTTTTTTTTTTTTTTTTTTTTTTTTTT PDIG        TELAPSE        5.36 TCPU        4.70
 CHARGE NORMALIZATION FACTOR   1.00000000
 TOTAL ATOMIC CHARGES:
   5.5742879   5.5742879   8.4252303   8.4252303   7.4672997   7.4672997
   7.4672997   7.4672997   0.7669338   0.7669338   0.7669338   0.7669338
   0.7660074   0.7660074   0.7660074   0.7660074
 TTTTTTTTTTTTTTTTTTTTTTTTTTTTTT QGAM        TELAPSE        5.36 TCPU        4.70
 TTTTTTTTTTTTTTTTTTTTTTTTTTTTTT BIEL        TELAPSE        5.42 TCPU        4.76
 TTTTTTTTTTTTTTTTTTTTTTTTTTTTTT TOTENY      TELAPSE        5.42 TCPU        4.76
 CYC   8 ETOT(AU) -4.420695539897E+02 DETOT -4.23E-05 tst  2.60E-06 PX  2.23E-03
 TTTTTTTTTTTTTTTTTTTTTTTTTTTTTT FDIK        TELAPSE        5.44 TCPU        4.78
 INSULATING STATE
 TOP OF VALENCE BANDS -    BAND     32; K    1; EIG -2.8649920E-01 AU
 BOTTOM OF VIRTUAL BANDS - BAND     33; K    4; EIG  3.4726062E-01 AU
 BOTTOM OF VIRTUAL BANDS - BAND     33; K    1; EIG  3.4943872E-01 AU
 TTTTTTTTTTTTTTTTTTTTTTTTTTTTTT PDIG        TELAPSE        5.45 TCPU        4.79
 CHARGE NORMALIZATION FACTOR   1.00000000
 TOTAL ATOMIC CHARGES:
   5.5743587   5.5743587   8.4246230   8.4246230   7.4670530   7.4670530
   7.4670530   7.4670530   0.7672619   0.7672619   0.7672619   0.7672619
   0.7661942   0.7661942   0.7661942   0.7661942
 TTTTTTTTTTTTTTTTTTTTTTTTTTTTTT QGAM        TELAPSE        5.45 TCPU        4.79
 TTTTTTTTTTTTTTTTTTTTTTTTTTTTTT BIEL        TELAPSE        5.51 TCPU        4.85
 TTTTTTTTTTTTTTTTTTTTTTTTTTTTTT TOTENY      TELAPSE        5.51 TCPU        4.85
 CYC   9 ETOT(AU) -4.420695714739E+02 DETOT -1.75E-05 tst  1.12E-06 PX  1.43E-03
 TTTTTTTTTTTTTTTTTTTTTTTTTTTTTT FDIK        TELAPSE        5.53 TCPU        4.87
 INSULATING STATE
 TOP OF VALENCE BANDS -    BAND     32; K    1; EIG -2.8661549E-01 AU
 BOTTOM OF VIRTUAL BANDS - BAND     33; K    4; EIG  3.4723267E-01 AU
 BOTTOM OF VIRTUAL BANDS - BAND     33; K    1; EIG  3.4941272E-01 AU
 TTTTTTTTTTTTTTTTTTTTTTTTTTTTTT PDIG        TELAPSE        5.54 TCPU        4.88
 CHARGE NORMALIZATION FACTOR   1.00000000
 TOTAL ATOMIC CHARGES:
   5.5744145   5.5744145   8.4242530   8.4242530   7.4669026   7.4669026
   7.4669026   7.4669026   0.7674666   0.7674666   0.7674666   0.7674666
   0.7662970   0.7662970   0.7662970   0.7662970
 TTTTTTTTTTTTTTTTTTTTTTTTTTTTTT QGAM        TELAPSE        5.54 TCPU        4.88
 TTTTTTTTTTTTTTTTTTTTTTTTTTTTTT BIEL        TELAPSE        5.60 TCPU        4.94
 TTTTTTTTTTTTTTTTTTTTTTTTTTTTTT TOTENY      TELAPSE        5.61 TCPU        4.94
 CYC  10 ETOT(AU) -4.420695789978E+02 DETOT -7.52E-06 tst  4.90E-07 PX  9.24E-04
 TTTTTTTTTTTTTTTTTTTTTTTTTTTTTT FDIK        TELAPSE        5.62 TCPU        4.96
 INSULATING STATE
 TOP OF VALENCE BANDS -    BAND     32; K    1; EIG -2.8667399E-01 AU
 BOTTOM OF VIRTUAL BANDS - BAND     33; K    4; EIG  3.4721412E-01 AU
 BOTTOM OF VIRTUAL BANDS - BAND     33; K    1; EIG  3.4939585E-01 AU
 TTTTTTTTTTTTTTTTTTTTTTTTTTTTTT PDIG        TELAPSE        5.64 TCPU        4.98
 CHARGE NORMALIZATION FACTOR   1.00000000
 TOTAL ATOMIC CHARGES:
   5.5744547   5.5744547   8.4240241   8.4240241   7.4668090   7.4668090
   7.4668090   7.4668090   0.7675968   0.7675968   0.7675968   0.7675968
   0.7663548   0.7663548   0.7663548   0.7663548
 TTTTTTTTTTTTTTTTTTTTTTTTTTTTTT QGAM        TELAPSE        5.64 TCPU        4.98
 TTTTTTTTTTTTTTTTTTTTTTTTTTTTTT BIEL        TELAPSE        5.69 TCPU        5.03
 TTTTTTTTTTTTTTTTTTTTTTTTTTTTTT TOTENY      TELAPSE        5.70 TCPU        5.04
 CYC  11 ETOT(AU) -4.420695823534E+02 DETOT -3.36E-06 tst  2.17E-07 PX  6.01E-04
 TTTTTTTTTTTTTTTTTTTTTTTTTTTTTT FDIK        TELAPSE        5.72 TCPU        5.06
 INSULATING STATE
 TOP OF VALENCE BANDS -    BAND     32; K    1; EIG -2.8670361E-01 AU
 BOTTOM OF VIRTUAL BANDS - BAND     33; K    4; EIG  3.4720168E-01 AU
 BOTTOM OF VIRTUAL BANDS - BAND     33; K    1; EIG  3.4938474E-01 AU
 TTTTTTTTTTTTTTTTTTTTTTTTTTTTTT PDIG        TELAPSE        5.73 TCPU        5.07
 CHARGE NORMALIZATION FACTOR   1.00000000
 TOTAL ATOMIC CHARGES:
   5.5744822   5.5744822   8.4238811   8.4238811   7.4667497   7.4667497
   7.4667497   7.4667497   0.7676807   0.7676807   0.7676807   0.7676807
   0.7663879   0.7663879   0.7663879   0.7663879
 TTTTTTTTTTTTTTTTTTTTTTTTTTTTTT QGAM        TELAPSE        5.73 TCPU        5.07
 TTTTTTTTTTTTTTTTTTTTTTTTTTTTTT BIEL        TELAPSE        5.79 TCPU        5.13
 TTTTTTTTTTTTTTTTTTTTTTTTTTTTTT TOTENY      TELAPSE        5.79 TCPU        5.13
 CYC  12 ETOT(AU) -4.420695839004E+02 DETOT -1.55E-06 tst  9.75E-08 PX  3.94E-04
 TTTTTTTTTTTTTTTTTTTTTTTTTTTTTT FDIK        TELAPSE        5.81 TCPU        5.15
 INSULATING STATE
 TOP OF VALENCE BANDS -    BAND     32; K    1; EIG -2.8671839E-01 AU
 BOTTOM OF VIRTUAL BANDS - BAND     33; K    4; EIG  3.4719316E-01 AU
 BOTTOM OF VIRTUAL BANDS - BAND     33; K    1; EIG  3.4937724E-01 AU
 TTTTTTTTTTTTTTTTTTTTTTTTTTTTTT PDIG        TELAPSE        5.82 TCPU        5.16
 CHARGE NORMALIZATION FACTOR   1.00000000
 TOTAL ATOMIC CHARGES:
   5.5745009   5.5745009   8.4237903   8.4237903   7.4667119   7.4667119
   7.4667119   7.4667119   0.7677354   0.7677354   0.7677354   0.7677354
   0.7664070   0.7664070   0.7664070   0.7664070
 TTTTTTTTTTTTTTTTTTTTTTTTTTTTTT QGAM        TELAPSE        5.82 TCPU        5.16
 TTTTTTTTTTTTTTTTTTTTTTTTTTTTTT BIEL        TELAPSE        5.88 TCPU        5.22
 TTTTTTTTTTTTTTTTTTTTTTTTTTTTTT TOTENY      TELAPSE        5.89 TCPU        5.22
 CYC  13 ETOT(AU) -4.420695846352E+02 DETOT -7.35E-07 tst  4.42E-08 PX  2.66E-04
 TTTTTTTTTTTTTTTTTTTTTTTTTTTTTT FDIK        TELAPSE        5.90 TCPU        5.24
 INSULATING STATE
 TOP OF VALENCE BANDS -    BAND     32; K    1; EIG -2.8672557E-01 AU
 BOTTOM OF VIRTUAL BANDS - BAND     33; K    4; EIG  3.4718721E-01 AU
 BOTTOM OF VIRTUAL BANDS - BAND     33; K    1; EIG  3.4937206E-01 AU
 TTTTTTTTTTTTTTTTTTTTTTTTTTTTTT PDIG        TELAPSE        5.92 TCPU        5.26
 CHARGE NORMALIZATION FACTOR   1.00000000
 TOTAL ATOMIC CHARGES:
   5.5745132   5.5745132   8.4237322   8.4237322   7.4666874   7.4666874
   7.4666874   7.4666874   0.7677715   0.7677715   0.7677715   0.7677715
   0.7664184   0.7664184   0.7664184   0.7664184
 TTTTTTTTTTTTTTTTTTTTTTTTTTTTTT QGAM        TELAPSE        5.92 TCPU        5.26
 TTTTTTTTTTTTTTTTTTTTTTTTTTTTTT BIEL        TELAPSE        5.98 TCPU        5.32
 TTTTTTTTTTTTTTTTTTTTTTTTTTTTTT TOTENY      TELAPSE        5.99 TCPU        5.33
 CYC  14 ETOT(AU) -4.420695849953E+02 DETOT -3.60E-07 tst  2.02E-08 PX  1.80E-04
 TTTTTTTTTTTTTTTTTTTTTTTTTTTTTT FDIK        TELAPSE        6.00 TCPU        5.34
 INSULATING STATE
 TOP OF VALENCE BANDS -    BAND     32; K    1; EIG -2.8672884E-01 AU
 BOTTOM OF VIRTUAL BANDS - BAND     33; K    4; EIG  3.4718298E-01 AU
 BOTTOM OF VIRTUAL BANDS - BAND     33; K    1; EIG  3.4936839E-01 AU
 TTTTTTTTTTTTTTTTTTTTTTTTTTTTTT PDIG        TELAPSE        6.02 TCPU        5.36
 CHARGE NORMALIZATION FACTOR   1.00000000
 TOTAL ATOMIC CHARGES:
   5.5745212   5.5745212   8.4236945   8.4236945   7.4666715   7.4666715
   7.4666715   7.4666715   0.7677954   0.7677954   0.7677954   0.7677954
   0.7664252   0.7664252   0.7664252   0.7664252
 TTTTTTTTTTTTTTTTTTTTTTTTTTTTTT QGAM        TELAPSE        6.02 TCPU        5.36
 TTTTTTTTTTTTTTTTTTTTTTTTTTTTTT BIEL        TELAPSE        6.08 TCPU        5.42
 TTTTTTTTTTTTTTTTTTTTTTTTTTTTTT TOTENY      TELAPSE        6.08 TCPU        5.42
 CYC  15 ETOT(AU) -4.420695851773E+02 DETOT -1.82E-07 tst  9.31E-09 PX  1.23E-04
 TTTTTTTTTTTTTTTTTTTTTTTTTTTTTT FDIK        TELAPSE        6.10 TCPU        5.44
 INSULATING STATE
 TOP OF VALENCE BANDS -    BAND     32; K    1; EIG -2.8673016E-01 AU
 BOTTOM OF VIRTUAL BANDS - BAND     33; K    4; EIG  3.4717996E-01 AU
 BOTTOM OF VIRTUAL BANDS - BAND     33; K    1; EIG  3.4936577E-01 AU
 TTTTTTTTTTTTTTTTTTTTTTTTTTTTTT PDIG        TELAPSE        6.11 TCPU        5.45
 CHARGE NORMALIZATION FACTOR   1.00000000
 TOTAL ATOMIC CHARGES:
   5.5745264   5.5745264   8.4236699   8.4236699   7.4666610   7.4666610
   7.4666610   7.4666610   0.7678114   0.7678114   0.7678114   0.7678114
   0.7664294   0.7664294   0.7664294   0.7664294
 TTTTTTTTTTTTTTTTTTTTTTTTTTTTTT QGAM        TELAPSE        6.11 TCPU        5.45
 TTTTTTTTTTTTTTTTTTTTTTTTTTTTTT BIEL        TELAPSE        6.17 TCPU        5.51
 TTTTTTTTTTTTTTTTTTTTTTTTTTTTTT TOTENY      TELAPSE        6.17 TCPU        5.52
 CYC  16 ETOT(AU) -4.420695852726E+02 DETOT -9.53E-08 tst  4.32E-09 PX  8.42E-05
 TTTTTTTTTTTTTTTTTTTTTTTTTTTTTT FDIK        TELAPSE        6.19 TCPU        5.53
 INSULATING STATE
 TOP OF VALENCE BANDS -    BAND     32; K    1; EIG -2.8673053E-01 AU
 BOTTOM OF VIRTUAL BANDS - BAND     33; K    4; EIG  3.4717778E-01 AU
 BOTTOM OF VIRTUAL BANDS - BAND     33; K    1; EIG  3.4936389E-01 AU
 TTTTTTTTTTTTTTTTTTTTTTTTTTTTTT PDIG        TELAPSE        6.20 TCPU        5.54
 CHARGE NORMALIZATION FACTOR   1.00000000
 TOTAL ATOMIC CHARGES:
   5.5745298   5.5745298   8.4236537   8.4236537   7.4666541   7.4666541
   7.4666541   7.4666541   0.7678222   0.7678222   0.7678222   0.7678222
   0.7664319   0.7664319   0.7664319   0.7664319
 TTTTTTTTTTTTTTTTTTTTTTTTTTTTTT QGAM        TELAPSE        6.21 TCPU        5.55
 TTTTTTTTTTTTTTTTTTTTTTTTTTTTTT BIEL        TELAPSE        6.26 TCPU        5.60
 +++ ENERGIES IN A.U. +++
 ::: EXT EL-POLE : L =  0                         -9.8841000817012E+02
 ::: EXT EL-POLE : L =  1                         -4.3063746883679E-02
 ::: EXT EL-POLE : L =  2                         -5.9905182341556E-03
 ::: EXT EL-POLE : L =  3                         -1.4825081329609E-03
 ::: EXT EL-POLE : L =  4                          5.5742366919093E-05
 ::: EXT EL-SPHEROPOLE                             6.6375181483732E+00
 ::: BIELET ZONE E-E                               1.0808696225836E+03
 ::: TOTAL E-E                                     9.9046651531003E+01
 ::: TOTAL E-N + N-E                              -9.0454511970812E+02
 ::: TOTAL N-N                                    -7.5336138747023E+01
 ::: KINETIC ENERGY                                4.3876502159988E+02
 ::: TOTAL   ENERGY                               -4.4206958532426E+02
 ::: VIRIAL COEFFICIENT                            9.9624837205714E-01
 TTTTTTTTTTTTTTTTTTTTTTTTTTTTTT TOTENY      TELAPSE        6.27 TCPU        5.61
 CYC  17 ETOT(AU) -4.420695853243E+02 DETOT -5.17E-08 tst  2.02E-09 PX  8.42E-05

 == SCF ENDED - CONVERGENCE ON ENERGY      E(AU) -4.4206958532426E+02 CYCLES  17

 TOTAL ENERGY(HF)(AU)(  17) -4.4206958532426E+02 DE-5.2E-08 tst 2.0E-09 PX 8.4E-05

 *******************************************************************************
 *                             FORCE CALCULATION                               *
 *******************************************************************************

 INFORMATION **** EXCPOG **** EXCH. BIPO BUFFER LENGTH (WORDS) =      344628
 INFORMATION **** GENPOG **** BIPO BUFFER LENGTH (WORDS) =      111600
 TTTTTTTTTTTTTTTTTTTTTTTTTTTTTT SHELXG      TELAPSE       28.19 TCPU       27.54

 CARTESIAN FORCES (ANALYTICAL)
   ATOM                     X                   Y                   Z
   1   6             2.081668171172E-16  7.494005416220E-16  7.429372656166E-02
   2   6            -2.414735078560E-15 -1.998401444325E-15 -7.429372656164E-02
   3   8             5.134781488891E-16  7.771561172376E-16  4.114273940933E-03
   4   8            -5.551115123126E-16 -1.609823385706E-15 -4.114273940948E-03
   5   7             2.157241515398E-02  2.157241515399E-02 -2.312898895020E-02
   6   7            -2.157241515398E-02 -2.157241515399E-02 -2.312898895019E-02
   7   7             2.157241515399E-02 -2.157241515399E-02  2.312898895020E-02
   8   7            -2.157241515399E-02  2.157241515399E-02  2.312898895020E-02
   9   1             1.049231095102E-02  1.049231095102E-02  2.713905275639E-03
  10   1            -1.049231095102E-02 -1.049231095102E-02  2.713905275639E-03
  11   1             1.049231095102E-02 -1.049231095102E-02 -2.713905275639E-03
  12   1            -1.049231095102E-02  1.049231095102E-02 -2.713905275640E-03
  13   1            -6.311151420962E-05 -6.311151420990E-05 -1.594684457455E-02
  14   1             6.311151420929E-05  6.311151421012E-05 -1.594684457455E-02
  15   1            -6.311151420790E-05  6.311151421085E-05  1.594684457455E-02
  16   1             6.311151420946E-05 -6.311151420957E-05  1.594684457455E-02

 RESULTANT FORCE    -1.387778780781E-16 -1.387778780781E-16  4.218847493576E-15

ATOMIC PART

 SYMMETRY ALLOWED FORCES (ANALYTICAL) (DIRECTION, FORCE)

    1  1.0506720E-01    2  5.8184620E-03    3  6.1016004E-02    4 -4.6257978E-02
    5  2.9676737E-02    6  5.4278106E-03    7 -1.7850632E-04    8 -3.1893689E-02

CELL PART

 SYMMETRY ALLOWED FORCES (ANALYTICAL) (DIRECTION, FORCE)

    1  4.2762916E-02    2 -2.3354495E-03
 TTTTTTTTTTTTTTTTTTTTTTTTTTTTTT TOTGRA_C    TELAPSE       37.18 TCPU       36.50
 INFORMATION **** optc001 **** GEOMETRY OUTPUT FILE
 CLASSICAL MODEL (SCHLEGEL) USED AS INITIAL HESSIAN MATRIX
 REFERENCE GEOMETRY DEFINED

 MAX GRADIENT      0.105067  THRESHOLD              0.000450 CONVERGED NO
 RMS GRADIENT      0.045494  THRESHOLD              0.000300 CONVERGED NO

 GRADIENT NORM     0.143865  GRADIENT THRESHOLD     0.500000

 PREDICTED ENERGY CHANGE    -0.168E-03

 INITIAL DISPLACEMENTS
  0.000919  0.000735  0.000529  0.000166  0.001006 -0.000431  0.000039  0.000049
  0.000372 -0.000372
 TTTTTTTTTTTTTTTTTTTTTTTTTTTTTT OPTI        TELAPSE       37.20 TCPU       36.52

 OPTOPTOPTOPTOPTOPTOPTOPTOPTOPTOPTOPTOPTOPTOPTOPTOPTOPTOPTOPTOPTOPTOPTOPTOPTOPT

 STARTING GEOMETRY OPTIMIZATION - INFORMATION ON SCF MOVED TO SCFOUT.LOG
 GEOMETRY OPTIMIZATION INFORMATION STORED IN OPTINFO.DAT

 OPTOPTOPTOPTOPTOPTOPTOPTOPTOPTOPTOPTOPTOPTOPTOPTOPTOPTOPTOPTOPTOPTOPTOPTOPTOPT
 *******************************************************************************
 COORDINATE AND CELL OPTIMIZATION - POINT    2
 *******************************************************************************
 LATTICE PARAMETERS (ANGSTROMS AND DEGREES) - BOHR = 0.5291772083 ANGSTROM
 PRIMITIVE CELL - CENTRING CODE 1/0 VOLUME=   145.071286 - DENSITY  1.374 g/cm^3
         A              B              C           ALPHA      BETA       GAMMA 
     5.56510164     5.56510164     4.68419817    90.000000  90.000000  90.000000
 *******************************************************************************
 ATOMS IN THE ASYMMETRIC UNIT    5 - ATOMS IN THE UNIT CELL:   16
     ATOM              X/A                 Y/B                 Z/C    
 *******************************************************************************
   1 T   6 C     0.000000000000E+00  5.000000000000E-01  3.260734454037E-01
   2 F   6 C     5.000000000000E-01  0.000000000000E+00 -3.260734454037E-01
   3 T   8 O     0.000000000000E+00  5.000000000000E-01 -4.046412684358E-01
   4 F   8 O     5.000000000000E-01  0.000000000000E+00  4.046412684358E-01
   5 T   7 N     1.459177932459E-01 -3.540822067541E-01  1.766093863475E-01
   6 F   7 N    -1.459177932459E-01  3.540822067541E-01  1.766093863475E-01
   7 F   7 N    -3.540822067541E-01 -1.459177932459E-01 -1.766093863475E-01
   8 F   7 N     3.540822067541E-01  1.459177932459E-01 -1.766093863475E-01
   9 T   1 H     2.575338135504E-01 -2.424661864496E-01  2.826756692522E-01
  10 F   1 H    -2.575338135504E-01  2.424661864496E-01  2.826756692522E-01
  11 F   1 H    -2.424661864496E-01 -2.575338135504E-01 -2.826756692522E-01
  12 F   1 H     2.424661864496E-01  2.575338135504E-01 -2.826756692522E-01
  13 T   1 H     1.441012977451E-01 -3.558987022549E-01 -3.799721994188E-02
  14 F   1 H    -1.441012977451E-01  3.558987022549E-01 -3.799721994188E-02
  15 F   1 H    -3.558987022549E-01 -1.441012977451E-01  3.799721994188E-02
  16 F   1 H     3.558987022549E-01  1.441012977451E-01  3.799721994188E-02

 T = ATOM BELONGING TO THE ASYMMETRIC UNIT

 TOTAL ENERGY(HF)(AU)(   4) -4.4206975295581E+02     DE (AU)   -1.676E-04

 SYMMETRY ALLOWED FORCES  (COORDINATE, FORCE)

    1  1.0447172E-01    2  5.6464253E-03    3  6.0485720E-02    4 -4.5880744E-02
    5  2.9538359E-02    6  5.3734978E-03    7 -2.1629087E-04    8 -3.1690069E-02
    9  4.2366047E-02   10 -2.2972297E-03

 GRADIENT NORM     0.142883  GRADIENT THRESHOLD     0.500000

 PREDICTED ENERGY CHANGE    -0.136E-01

 MAX GRADIENT      0.104472  THRESHOLD              0.000450 CONVERGED NO
 RMS GRADIENT      0.045184  THRESHOLD              0.000300 CONVERGED NO
 MAX DISPLAC.      0.214304  THRESHOLD              0.001800 CONVERGED NO
 RMS DISPLAC.      0.118856  THRESHOLD              0.001200 CONVERGED NO
 TTTTTTTTTTTTTTTTTTTTTTTTTTTTTT OPTI        TELAPSE       72.62 TCPU       71.90
 *******************************************************************************
 COORDINATE AND CELL OPTIMIZATION - POINT    3
 *******************************************************************************
 LATTICE PARAMETERS (ANGSTROMS AND DEGREES) - BOHR = 0.5291772083 ANGSTROM
 PRIMITIVE CELL - CENTRING CODE 1/0 VOLUME=   143.969698 - DENSITY  1.385 g/cm^3
         A              B              C           ALPHA      BETA       GAMMA 
     5.54200383     5.54200383     4.68745867    90.000000  90.000000  90.000000
 *******************************************************************************
 ATOMS IN THE ASYMMETRIC UNIT    5 - ATOMS IN THE UNIT CELL:   16
     ATOM              X/A                 Y/B                 Z/C    
 *******************************************************************************
   1 T   6 C     0.000000000000E+00 -5.000000000000E-01  3.427203560489E-01
   2 F   6 C    -5.000000000000E-01  0.000000000000E+00 -3.427203560489E-01
   3 T   8 O     0.000000000000E+00 -5.000000000000E-01 -3.919586832926E-01
   4 F   8 O    -5.000000000000E-01  0.000000000000E+00  3.919586832926E-01
   5 T   7 N     1.483073695083E-01 -3.516926304917E-01  1.807863175203E-01
   6 F   7 N    -1.483073695083E-01  3.516926304917E-01  1.807863175203E-01
   7 F   7 N    -3.516926304917E-01 -1.483073695083E-01 -1.807863175203E-01
   8 F   7 N     3.516926304917E-01  1.483073695083E-01 -1.807863175203E-01
   9 T   1 H     2.647385954507E-01 -2.352614045493E-01  2.783893513351E-01
  10 F   1 H    -2.647385954507E-01  2.352614045493E-01  2.783893513351E-01
  11 F   1 H    -2.352614045493E-01 -2.647385954507E-01 -2.783893513351E-01
  12 F   1 H     2.352614045493E-01  2.647385954507E-01 -2.783893513351E-01
  13 T   1 H     1.424154811599E-01 -3.575845188401E-01 -3.620938334256E-02
  14 F   1 H    -1.424154811599E-01  3.575845188401E-01 -3.620938334256E-02
  15 F   1 H    -3.575845188401E-01 -1.424154811599E-01  3.620938334256E-02
  16 F   1 H     3.575845188401E-01  1.424154811599E-01  3.620938334256E-02

 T = ATOM BELONGING TO THE ASYMMETRIC UNIT

 TOTAL ENERGY(HF)(AU)(  11) -4.4208391392058E+02     DE (AU)   -1.416E-02

 SYMMETRY ALLOWED FORCES  (COORDINATE, FORCE)

    1 -2.0617202E-02    2  2.4755661E-02    3  8.7823764E-03    4  8.8829149E-04
    5  1.7632493E-03    6 -2.8338157E-03    7 -5.6579591E-03    8  9.9909682E-04
    9 -6.0250952E-04   10 -1.8094573E-03

 GRADIENT NORM     0.034112  GRADIENT THRESHOLD     0.500000

 PREDICTED ENERGY CHANGE    -0.895E-03

 MAX GRADIENT      0.024756  THRESHOLD              0.000450 CONVERGED NO
 RMS GRADIENT      0.010787  THRESHOLD              0.000300 CONVERGED NO
 MAX DISPLAC.      0.070763  THRESHOLD              0.001800 CONVERGED NO
 RMS DISPLAC.      0.045013  THRESHOLD              0.001200 CONVERGED NO
 TTTTTTTTTTTTTTTTTTTTTTTTTTTTTT OPTI        TELAPSE      108.69 TCPU      107.90
 *******************************************************************************
 COORDINATE AND CELL OPTIMIZATION - POINT    4
 *******************************************************************************
 LATTICE PARAMETERS (ANGSTROMS AND DEGREES) - BOHR = 0.5291772083 ANGSTROM
 PRIMITIVE CELL - CENTRING CODE 1/0 VOLUME=   141.826816 - DENSITY  1.406 g/cm^3
         A              B              C           ALPHA      BETA       GAMMA 
     5.50716789     5.50716789     4.67629306    90.000000  90.000000  90.000000
 *******************************************************************************
 ATOMS IN THE ASYMMETRIC UNIT    5 - ATOMS IN THE UNIT CELL:   16
     ATOM              X/A                 Y/B                 Z/C    
 *******************************************************************************
   1 T   6 C     0.000000000000E+00 -5.000000000000E-01  3.443318245036E-01
   2 F   6 C    -5.000000000000E-01  0.000000000000E+00 -3.443318245036E-01
   3 T   8 O     0.000000000000E+00 -5.000000000000E-01 -3.873579789539E-01
   4 F   8 O    -5.000000000000E-01  0.000000000000E+00  3.873579789539E-01
   5 T   7 N     1.493555377018E-01 -3.506444622982E-01  1.809830872743E-01
   6 F   7 N    -1.493555377018E-01  3.506444622982E-01  1.809830872743E-01
   7 F   7 N    -3.506444622982E-01 -1.493555377018E-01 -1.809830872743E-01
   8 F   7 N     3.506444622982E-01  1.493555377018E-01 -1.809830872743E-01
   9 T   1 H     2.671175968793E-01 -2.328824031207E-01  2.762126879189E-01
  10 F   1 H    -2.671175968793E-01  2.328824031207E-01  2.762126879189E-01
  11 F   1 H    -2.328824031207E-01 -2.671175968793E-01 -2.762126879189E-01
  12 F   1 H     2.328824031207E-01  2.671175968793E-01 -2.762126879189E-01
  13 T   1 H     1.417164014393E-01 -3.582835985607E-01 -3.617958259571E-02
  14 F   1 H    -1.417164014393E-01  3.582835985607E-01 -3.617958259571E-02
  15 F   1 H    -3.582835985607E-01 -1.417164014393E-01  3.617958259571E-02
  16 F   1 H     3.582835985607E-01  1.417164014393E-01  3.617958259571E-02

 T = ATOM BELONGING TO THE ASYMMETRIC UNIT

 TOTAL ENERGY(HF)(AU)(  10) -4.4208514005070E+02     DE (AU)   -1.226E-03

 SYMMETRY ALLOWED FORCES  (COORDINATE, FORCE)

    1 -9.3839650E-03    2  1.8879894E-03    3 -5.6005798E-03    4  8.4146664E-03
    5  5.1734503E-03    6  8.0221021E-04    7 -4.9150977E-03    8 -1.9710345E-03
    9 -7.5601902E-03   10  8.3097866E-04

 GRADIENT NORM     0.017524  GRADIENT THRESHOLD     0.500000

 PREDICTED ENERGY CHANGE    -0.924E-03

 MAX GRADIENT      0.009384  THRESHOLD              0.000450 CONVERGED NO
 RMS GRADIENT      0.005542  THRESHOLD              0.000300 CONVERGED NO
 MAX DISPLAC.      0.173388  THRESHOLD              0.001800 CONVERGED NO
 RMS DISPLAC.      0.081484  THRESHOLD              0.001200 CONVERGED NO
 TTTTTTTTTTTTTTTTTTTTTTTTTTTTTT OPTI        TELAPSE      144.71 TCPU      143.87
 *******************************************************************************
 COORDINATE AND CELL OPTIMIZATION - POINT    5
 *******************************************************************************
 LATTICE PARAMETERS (ANGSTROMS AND DEGREES) - BOHR = 0.5291772083 ANGSTROM
 PRIMITIVE CELL - CENTRING CODE 1/0 VOLUME=   136.676066 - DENSITY  1.459 g/cm^3
         A              B              C           ALPHA      BETA       GAMMA 
     5.43207774     5.43207774     4.63191432    90.000000  90.000000  90.000000
 *******************************************************************************
 ATOMS IN THE ASYMMETRIC UNIT    5 - ATOMS IN THE UNIT CELL:   16
     ATOM              X/A                 Y/B                 Z/C    
 *******************************************************************************
   1 T   6 C     0.000000000000E+00 -5.000000000000E-01  3.463717390061E-01
   2 F   6 C    -5.000000000000E-01  0.000000000000E+00 -3.463717390061E-01
   3 T   8 O     0.000000000000E+00 -5.000000000000E-01 -3.814421420246E-01
   4 F   8 O    -5.000000000000E-01  0.000000000000E+00  3.814421420246E-01
   5 T   7 N     1.512368600459E-01 -3.487631399541E-01  1.815257578956E-01
   6 F   7 N    -1.512368600459E-01  3.487631399541E-01  1.815257578956E-01
   7 F   7 N    -3.487631399541E-01 -1.512368600459E-01 -1.815257578956E-01
   8 F   7 N     3.487631399541E-01  1.512368600459E-01 -1.815257578956E-01
   9 T   1 H     2.718476652567E-01 -2.281523347433E-01  2.742879091679E-01
  10 F   1 H    -2.718476652567E-01  2.281523347433E-01  2.742879091679E-01
  11 F   1 H    -2.281523347433E-01 -2.718476652567E-01 -2.742879091679E-01
  12 F   1 H     2.281523347433E-01  2.718476652567E-01 -2.742879091679E-01
  13 T   1 H     1.405525786645E-01 -3.594474213355E-01 -3.767394491682E-02
  14 F   1 H    -1.405525786645E-01  3.594474213355E-01 -3.767394491682E-02
  15 F   1 H    -3.594474213355E-01 -1.405525786645E-01  3.767394491682E-02
  16 F   1 H     3.594474213355E-01  1.405525786645E-01  3.767394491682E-02

 T = ATOM BELONGING TO THE ASYMMETRIC UNIT

 TOTAL ENERGY(HF)(AU)(  11) -4.4208637199703E+02     DE (AU)   -1.232E-03

 SYMMETRY ALLOWED FORCES  (COORDINATE, FORCE)

    1 -8.6350473E-03    2 -1.8566708E-03    3 -1.3010009E-02    4  6.2899263E-03
    5  3.4277243E-03    6  2.3492889E-03    7 -1.3812995E-03    8 -1.8076199E-04
    9 -6.9689866E-03   10  5.4217527E-04

 GRADIENT NORM     0.018839  GRADIENT THRESHOLD     0.500000

 PREDICTED ENERGY CHANGE    -0.347E-03

 MAX GRADIENT      0.013010  THRESHOLD              0.000450 CONVERGED NO
 RMS GRADIENT      0.005957  THRESHOLD              0.000300 CONVERGED NO
 MAX DISPLAC.      0.121732  THRESHOLD              0.001800 CONVERGED NO
 RMS DISPLAC.      0.051248  THRESHOLD              0.001200 CONVERGED NO
 TTTTTTTTTTTTTTTTTTTTTTTTTTTTTT OPTI        TELAPSE      181.07 TCPU      180.08
 *******************************************************************************
 COORDINATE AND CELL OPTIMIZATION - POINT    6
 *******************************************************************************
 LATTICE PARAMETERS (ANGSTROMS AND DEGREES) - BOHR = 0.5291772083 ANGSTROM
 PRIMITIVE CELL - CENTRING CODE 1/0 VOLUME=   133.178398 - DENSITY  1.497 g/cm^3
         A              B              C           ALPHA      BETA       GAMMA 
     5.37910451     5.37910451     4.60271222    90.000000  90.000000  90.000000
 *******************************************************************************
 ATOMS IN THE ASYMMETRIC UNIT    5 - ATOMS IN THE UNIT CELL:   16
     ATOM              X/A                 Y/B                 Z/C    
 *******************************************************************************
   1 T   6 C     0.000000000000E+00 -5.000000000000E-01  3.463315624236E-01
   2 F   6 C    -5.000000000000E-01  0.000000000000E+00 -3.463315624236E-01
   3 T   8 O     0.000000000000E+00 -5.000000000000E-01 -3.788709986876E-01
   4 F   8 O    -5.000000000000E-01  0.000000000000E+00  3.788709986876E-01
   5 T   7 N     1.520795937646E-01 -3.479204062354E-01  1.813757298299E-01
   6 F   7 N    -1.520795937646E-01  3.479204062354E-01  1.813757298299E-01
   7 F   7 N    -3.479204062354E-01 -1.520795937646E-01 -1.813757298299E-01
   8 F   7 N     3.479204062354E-01  1.520795937646E-01 -1.813757298299E-01
   9 T   1 H     2.744458502759E-01 -2.255541497241E-01  2.738701014599E-01
  10 F   1 H    -2.744458502759E-01  2.255541497241E-01  2.738701014599E-01
  11 F   1 H    -2.255541497241E-01 -2.744458502759E-01 -2.738701014599E-01
  12 F   1 H     2.255541497241E-01  2.744458502759E-01 -2.738701014599E-01
  13 T   1 H     1.400554193398E-01 -3.599445806602E-01 -3.914436696174E-02
  14 F   1 H    -1.400554193398E-01  3.599445806602E-01 -3.914436696174E-02
  15 F   1 H    -3.599445806602E-01 -1.400554193398E-01  3.914436696174E-02
  16 F   1 H     3.599445806602E-01  1.400554193398E-01  3.914436696174E-02

 T = ATOM BELONGING TO THE ASYMMETRIC UNIT

 TOTAL ENERGY(HF)(AU)(  11) -4.4208673680825E+02     DE (AU)   -3.648E-04

 SYMMETRY ALLOWED FORCES  (COORDINATE, FORCE)

    1 -3.0928863E-03    2 -1.7830805E-03    3 -5.4105390E-03    4  2.7616268E-03
    5  1.3066939E-03    6  1.2952277E-03    7  6.0451506E-04    8 -8.7148275E-05
    9 -1.4609071E-03   10  2.7509856E-04

 GRADIENT NORM     0.007457  GRADIENT THRESHOLD     0.500000

 PREDICTED ENERGY CHANGE    -0.333E-04

 MAX GRADIENT      0.005411  THRESHOLD              0.000450 CONVERGED NO
 RMS GRADIENT      0.002358  THRESHOLD              0.000300 CONVERGED NO
 MAX DISPLAC.      0.011206  THRESHOLD              0.001800 CONVERGED NO
 RMS DISPLAC.      0.005612  THRESHOLD              0.001200 CONVERGED NO
 TTTTTTTTTTTTTTTTTTTTTTTTTTTTTT OPTI        TELAPSE      217.39 TCPU      216.02
 *******************************************************************************
 COORDINATE AND CELL OPTIMIZATION - POINT    7
 *******************************************************************************
 LATTICE PARAMETERS (ANGSTROMS AND DEGREES) - BOHR = 0.5291772083 ANGSTROM
 PRIMITIVE CELL - CENTRING CODE 1/0 VOLUME=   133.221439 - DENSITY  1.497 g/cm^3
         A              B              C           ALPHA      BETA       GAMMA 
     5.37998114     5.37998114     4.60269940    90.000000  90.000000  90.000000
 *******************************************************************************
 ATOMS IN THE ASYMMETRIC UNIT    5 - ATOMS IN THE UNIT CELL:   16
     ATOM              X/A                 Y/B                 Z/C    
 *******************************************************************************
   1 T   6 C     0.000000000000E+00  5.000000000000E-01  3.457429815713E-01
   2 F   6 C     5.000000000000E-01  0.000000000000E+00 -3.457429815713E-01
   3 T   8 O     0.000000000000E+00  5.000000000000E-01 -3.794741223663E-01
   4 F   8 O     5.000000000000E-01  0.000000000000E+00  3.794741223663E-01
   5 T   7 N     1.519983566653E-01 -3.480016433347E-01  1.814822271222E-01
   6 F   7 N    -1.519983566653E-01  3.480016433347E-01  1.814822271222E-01
   7 F   7 N    -3.480016433347E-01 -1.519983566653E-01 -1.814822271222E-01
   8 F   7 N     3.480016433347E-01  1.519983566653E-01 -1.814822271222E-01
   9 T   1 H     2.743178961261E-01 -2.256821038739E-01  2.745031105976E-01
  10 F   1 H    -2.743178961261E-01  2.256821038739E-01  2.745031105976E-01
  11 F   1 H    -2.256821038739E-01 -2.743178961261E-01 -2.745031105976E-01
  12 F   1 H     2.256821038739E-01  2.743178961261E-01 -2.745031105976E-01
  13 T   1 H     1.402799101079E-01 -3.597200898921E-01 -3.909578258812E-02
  14 F   1 H    -1.402799101079E-01  3.597200898921E-01 -3.909578258812E-02
  15 F   1 H    -3.597200898921E-01 -1.402799101079E-01  3.909578258812E-02
  16 F   1 H     3.597200898921E-01  1.402799101079E-01  3.909578258812E-02

 T = ATOM BELONGING TO THE ASYMMETRIC UNIT

 TOTAL ENERGY(HF)(AU)(   5) -4.4208677567863E+02     DE (AU)   -3.887E-05

 SYMMETRY ALLOWED FORCES  (COORDINATE, FORCE)

    1  7.0811056E-04    2 -2.9034746E-04    3 -7.1287353E-04    4 -8.0532553E-07
    5  8.8535212E-05    6  4.4592135E-04    7  6.6136181E-04    8 -1.0855348E-04
    9 -2.7958075E-04   10 -7.1363214E-05

 GRADIENT NORM     0.001354  GRADIENT THRESHOLD     0.500000

 PREDICTED ENERGY CHANGE    -0.505E-05

 MAX GRADIENT      0.000713  THRESHOLD              0.000450 CONVERGED NO
 RMS GRADIENT      0.000428  THRESHOLD              0.000300 CONVERGED NO
 MAX DISPLAC.      0.015455  THRESHOLD              0.001800 CONVERGED NO
 RMS DISPLAC.      0.006488  THRESHOLD              0.001200 CONVERGED NO
 TTTTTTTTTTTTTTTTTTTTTTTTTTTTTT OPTI        TELAPSE      252.69 TCPU      251.30
 *******************************************************************************
 COORDINATE AND CELL OPTIMIZATION - POINT    8
 *******************************************************************************
 LATTICE PARAMETERS (ANGSTROMS AND DEGREES) - BOHR = 0.5291772083 ANGSTROM
 PRIMITIVE CELL - CENTRING CODE 1/0 VOLUME=   133.073651 - DENSITY  1.498 g/cm^3
         A              B              C           ALPHA      BETA       GAMMA 
     5.37620174     5.37620174     4.60405985    90.000000  90.000000  90.000000
 *******************************************************************************
 ATOMS IN THE ASYMMETRIC UNIT    5 - ATOMS IN THE UNIT CELL:   16
     ATOM              X/A                 Y/B                 Z/C    
 *******************************************************************************
   1 T   6 C     0.000000000000E+00 -5.000000000000E-01  3.458543056396E-01
   2 F   6 C    -5.000000000000E-01  0.000000000000E+00 -3.458543056396E-01
   3 T   8 O     0.000000000000E+00 -5.000000000000E-01 -3.794914233284E-01
   4 F   8 O    -5.000000000000E-01  0.000000000000E+00  3.794914233284E-01
   5 T   7 N     1.520613021851E-01 -3.479386978149E-01  1.817144453977E-01
   6 F   7 N    -1.520613021851E-01  3.479386978149E-01  1.817144453977E-01
   7 F   7 N    -3.479386978149E-01 -1.520613021851E-01 -1.817144453977E-01
   8 F   7 N     3.479386978149E-01  1.520613021851E-01 -1.817144453977E-01
   9 T   1 H     2.744033182001E-01 -2.255966817999E-01  2.748950841739E-01
  10 F   1 H    -2.744033182001E-01  2.255966817999E-01  2.748950841739E-01
  11 F   1 H    -2.255966817999E-01 -2.744033182001E-01 -2.748950841739E-01
  12 F   1 H     2.255966817999E-01  2.744033182001E-01 -2.748950841739E-01
  13 T   1 H     1.405342333521E-01 -3.594657666479E-01 -3.884055667425E-02
  14 F   1 H    -1.405342333521E-01  3.594657666479E-01 -3.884055667425E-02
  15 F   1 H    -3.594657666479E-01 -1.405342333521E-01  3.884055667425E-02
  16 F   1 H     3.594657666479E-01  1.405342333521E-01  3.884055667425E-02

 T = ATOM BELONGING TO THE ASYMMETRIC UNIT

 TOTAL ENERGY(HF)(AU)(   4) -4.4208678290647E+02     DE (AU)   -7.228E-06

 SYMMETRY ALLOWED FORCES  (COORDINATE, FORCE)

    1  1.0066162E-04    2  3.7773809E-04    3  1.5121840E-04    4 -4.5420022E-04
    5  4.5387340E-04    6  3.2036947E-04    7  3.4313075E-04    8  1.7815700E-04
    9  4.1767430E-04   10 -1.2644516E-05

 GRADIENT NORM     0.001007  GRADIENT THRESHOLD     0.500000

 PREDICTED ENERGY CHANGE    -0.328E-05

 MAX GRADIENT      0.000454  THRESHOLD              0.000450 CONVERGED NO
 RMS GRADIENT      0.000319  THRESHOLD              0.000300 CONVERGED NO
 MAX DISPLAC.      0.014018  THRESHOLD              0.001800 CONVERGED NO
 RMS DISPLAC.      0.007004  THRESHOLD              0.001200 CONVERGED NO
 TTTTTTTTTTTTTTTTTTTTTTTTTTTTTT OPTI        TELAPSE      288.00 TCPU      286.51
 *******************************************************************************
 COORDINATE AND CELL OPTIMIZATION - POINT    9
 *******************************************************************************
 LATTICE PARAMETERS (ANGSTROMS AND DEGREES) - BOHR = 0.5291772083 ANGSTROM
 PRIMITIVE CELL - CENTRING CODE 1/0 VOLUME=   133.004734 - DENSITY  1.499 g/cm^3
         A              B              C           ALPHA      BETA       GAMMA 
     5.37365167     5.37365167     4.60604394    90.000000  90.000000  90.000000
 *******************************************************************************
 ATOMS IN THE ASYMMETRIC UNIT    5 - ATOMS IN THE UNIT CELL:   16
     ATOM              X/A                 Y/B                 Z/C    
 *******************************************************************************
   1 T   6 C     0.000000000000E+00 -5.000000000000E-01  3.460253417221E-01
   2 F   6 C    -5.000000000000E-01  0.000000000000E+00 -3.460253417221E-01
   3 T   8 O     0.000000000000E+00 -5.000000000000E-01 -3.794412086618E-01
   4 F   8 O    -5.000000000000E-01  0.000000000000E+00  3.794412086618E-01
   5 T   7 N     1.521714067624E-01 -3.478285932376E-01  1.820703768610E-01
   6 F   7 N    -1.521714067624E-01  3.478285932376E-01  1.820703768610E-01
   7 F   7 N    -3.478285932376E-01 -1.521714067624E-01 -1.820703768610E-01
   8 F   7 N     3.478285932376E-01  1.521714067624E-01 -1.820703768610E-01
   9 T   1 H     2.745689115907E-01 -2.254310884093E-01  2.753616722877E-01
  10 F   1 H    -2.745689115907E-01  2.254310884093E-01  2.753616722877E-01
  11 F   1 H    -2.254310884093E-01 -2.745689115907E-01 -2.753616722877E-01
  12 F   1 H     2.254310884093E-01  2.745689115907E-01 -2.753616722877E-01
  13 T   1 H     1.408332550012E-01 -3.591667449988E-01 -3.839920333496E-02
  14 F   1 H    -1.408332550012E-01  3.591667449988E-01 -3.839920333496E-02
  15 F   1 H    -3.591667449988E-01 -1.408332550012E-01  3.839920333496E-02
  16 F   1 H     3.591667449988E-01  1.408332550012E-01  3.839920333496E-02

 T = ATOM BELONGING TO THE ASYMMETRIC UNIT

 TOTAL ENERGY(HF)(AU)(   4) -4.4208678829077E+02     DE (AU)   -5.384E-06

 SYMMETRY ALLOWED FORCES  (COORDINATE, FORCE)

    1 -2.7004779E-04    2  5.9163666E-04    3  5.5724339E-04    4 -2.7924816E-04
    5  1.4673672E-04    6  6.2065442E-05    7  3.0439543E-05    8  1.0630058E-04
    9  4.3329176E-04   10 -9.6626456E-05

 GRADIENT NORM     0.001023  GRADIENT THRESHOLD     0.500000

 PREDICTED ENERGY CHANGE    -0.157E-05

 MAX GRADIENT      0.000592  THRESHOLD              0.000450 CONVERGED NO
 RMS GRADIENT      0.000323  THRESHOLD              0.000300 CONVERGED NO
 MAX DISPLAC.      0.014424  THRESHOLD              0.001800 CONVERGED NO
 RMS DISPLAC.      0.006367  THRESHOLD              0.001200 CONVERGED NO
 TTTTTTTTTTTTTTTTTTTTTTTTTTTTTT OPTI        TELAPSE      323.35 TCPU      321.71
 *******************************************************************************
 COORDINATE AND CELL OPTIMIZATION - POINT   10
 *******************************************************************************
 LATTICE PARAMETERS (ANGSTROMS AND DEGREES) - BOHR = 0.5291772083 ANGSTROM
 PRIMITIVE CELL - CENTRING CODE 1/0 VOLUME=   132.938347 - DENSITY  1.500 g/cm^3
         A              B              C           ALPHA      BETA       GAMMA 
     5.37108946     5.37108946     4.60813828    90.000000  90.000000  90.000000
 *******************************************************************************
 ATOMS IN THE ASYMMETRIC UNIT    5 - ATOMS IN THE UNIT CELL:   16
     ATOM              X/A                 Y/B                 Z/C    
 *******************************************************************************
   1 T   6 C     0.000000000000E+00  5.000000000000E-01  3.461749313692E-01
   2 F   6 C    -5.000000000000E-01  0.000000000000E+00 -3.461749313692E-01
   3 T   8 O     0.000000000000E+00  5.000000000000E-01 -3.793432876343E-01
   4 F   8 O    -5.000000000000E-01  0.000000000000E+00  3.793432876343E-01
   5 T   7 N     1.522894395595E-01 -3.477105604405E-01  1.823666098075E-01
   6 F   7 N    -1.522894395595E-01  3.477105604405E-01  1.823666098075E-01
   7 F   7 N    -3.477105604405E-01 -1.522894395595E-01 -1.823666098075E-01
   8 F   7 N     3.477105604405E-01  1.522894395595E-01 -1.823666098075E-01
   9 T   1 H     2.747470637426E-01 -2.252529362574E-01  2.756885598767E-01
  10 F   1 H    -2.747470637426E-01  2.252529362574E-01  2.756885598767E-01
  11 F   1 H    -2.252529362574E-01 -2.747470637426E-01 -2.756885598767E-01
  12 F   1 H     2.252529362574E-01  2.747470637426E-01 -2.756885598767E-01
  13 T   1 H     1.410450962984E-01 -3.589549037016E-01 -3.801765568890E-02
  14 F   1 H    -1.410450962984E-01  3.589549037016E-01 -3.801765568890E-02
  15 F   1 H    -3.589549037016E-01 -1.410450962984E-01  3.801765568890E-02
  16 F   1 H     3.589549037016E-01  1.410450962984E-01  3.801765568890E-02

 T = ATOM BELONGING TO THE ASYMMETRIC UNIT

 TOTAL ENERGY(HF)(AU)(   4) -4.4208679078516E+02     DE (AU)   -2.494E-06

 SYMMETRY ALLOWED FORCES  (COORDINATE, FORCE)

    1 -1.6849823E-04    2  7.7197814E-05    3  2.1834854E-04    4 -1.6411333E-04
    5  8.8800158E-05    6 -4.1583403E-05    7 -1.1185559E-04    8  1.8902099E-04
    9  1.3631249E-04   10 -3.1724594E-05

 GRADIENT NORM     0.000432  GRADIENT THRESHOLD     0.500000

 PREDICTED ENERGY CHANGE    -0.252E-06

 MAX GRADIENT      0.000218  THRESHOLD              0.000450 CONVERGED YES
 RMS GRADIENT      0.000137  THRESHOLD              0.000300 CONVERGED YES
 MAX DISPLAC.      0.004867  THRESHOLD              0.001800 CONVERGED NO
 RMS DISPLAC.      0.001922  THRESHOLD              0.001200 CONVERGED NO
 TTTTTTTTTTTTTTTTTTTTTTTTTTTTTT OPTI        TELAPSE      358.52 TCPU      356.89
 *******************************************************************************
 COORDINATE AND CELL OPTIMIZATION - POINT   11
 *******************************************************************************
 LATTICE PARAMETERS (ANGSTROMS AND DEGREES) - BOHR = 0.5291772083 ANGSTROM
 PRIMITIVE CELL - CENTRING CODE 1/0 VOLUME=   132.933784 - DENSITY  1.500 g/cm^3
         A              B              C           ALPHA      BETA       GAMMA 
     5.37046535     5.37046535     4.60905118    90.000000  90.000000  90.000000
 *******************************************************************************
 ATOMS IN THE ASYMMETRIC UNIT    5 - ATOMS IN THE UNIT CELL:   16
     ATOM              X/A                 Y/B                 Z/C    
 *******************************************************************************
   1 T   6 C     0.000000000000E+00 -5.000000000000E-01  3.462066908947E-01
   2 F   6 C    -5.000000000000E-01  0.000000000000E+00 -3.462066908947E-01
   3 T   8 O     0.000000000000E+00 -5.000000000000E-01 -3.793358045591E-01
   4 F   8 O    -5.000000000000E-01  0.000000000000E+00  3.793358045591E-01
   5 T   7 N     1.523233681423E-01 -3.476766318577E-01  1.824416944765E-01
   6 F   7 N    -1.523233681423E-01  3.476766318577E-01  1.824416944765E-01
   7 F   7 N    -3.476766318577E-01 -1.523233681423E-01 -1.824416944765E-01
   8 F   7 N     3.476766318577E-01  1.523233681423E-01 -1.824416944765E-01
   9 T   1 H     2.748034150509E-01 -2.251965849491E-01  2.757485491971E-01
  10 F   1 H    -2.748034150509E-01  2.251965849491E-01  2.757485491971E-01
  11 F   1 H    -2.251965849491E-01 -2.748034150509E-01 -2.757485491971E-01
  12 F   1 H     2.251965849491E-01  2.748034150509E-01 -2.757485491971E-01
  13 T   1 H     1.410788659965E-01 -3.589211340035E-01 -3.788720914596E-02
  14 F   1 H    -1.410788659965E-01  3.589211340035E-01 -3.788720914596E-02
  15 F   1 H    -3.589211340035E-01 -1.410788659965E-01  3.788720914596E-02
  16 F   1 H     3.589211340035E-01  1.410788659965E-01  3.788720914596E-02

 T = ATOM BELONGING TO THE ASYMMETRIC UNIT

 TOTAL ENERGY(HF)(AU)(   3) -4.4208679133814E+02     DE (AU)   -5.530E-07

 SYMMETRY ALLOWED FORCES  (COORDINATE, FORCE)

    1 -5.5140353E-05    2 -1.4493671E-04    3  1.6418204E-05    4  3.3318233E-05
    5  4.2401629E-05    6 -7.2311254E-05    7 -1.0094633E-04    8  7.5586582E-05
    9 -1.2668204E-05   10 -2.5510798E-05

 GRADIENT NORM     0.000222  GRADIENT THRESHOLD     0.500000

 PREDICTED ENERGY CHANGE    -0.223E-06

 MAX GRADIENT      0.000145  THRESHOLD              0.000450 CONVERGED YES
 RMS GRADIENT      0.000070  THRESHOLD              0.000300 CONVERGED YES
 MAX DISPLAC.      0.007003  THRESHOLD              0.001800 CONVERGED NO
 RMS DISPLAC.      0.002531  THRESHOLD              0.001200 CONVERGED NO
 TTTTTTTTTTTTTTTTTTTTTTTTTTTTTT OPTI        TELAPSE      393.66 TCPU      392.02
 *******************************************************************************
 COORDINATE AND CELL OPTIMIZATION - POINT   12
 *******************************************************************************
 LATTICE PARAMETERS (ANGSTROMS AND DEGREES) - BOHR = 0.5291772083 ANGSTROM
 PRIMITIVE CELL - CENTRING CODE 1/0 VOLUME=   132.912877 - DENSITY  1.500 g/cm^3
         A              B              C           ALPHA      BETA       GAMMA 
     5.36937438     5.36937438     4.61019915    90.000000  90.000000  90.000000
 *******************************************************************************
 ATOMS IN THE ASYMMETRIC UNIT    5 - ATOMS IN THE UNIT CELL:   16
     ATOM              X/A                 Y/B                 Z/C    
 *******************************************************************************
   1 T   6 C     0.000000000000E+00 -5.000000000000E-01  3.462358278204E-01
   2 F   6 C    -5.000000000000E-01  0.000000000000E+00 -3.462358278204E-01
   3 T   8 O     0.000000000000E+00 -5.000000000000E-01 -3.793456282412E-01
   4 F   8 O    -5.000000000000E-01  0.000000000000E+00  3.793456282412E-01
   5 T   7 N     1.523601125285E-01 -3.476398874715E-01  1.825158581709E-01
   6 F   7 N    -1.523601125285E-01  3.476398874715E-01  1.825158581709E-01
   7 F   7 N    -3.476398874715E-01 -1.523601125285E-01 -1.825158581709E-01
   8 F   7 N     3.476398874715E-01  1.523601125285E-01 -1.825158581709E-01
   9 T   1 H     2.748787584916E-01 -2.251212415084E-01  2.757808018447E-01
  10 F   1 H    -2.748787584916E-01  2.251212415084E-01  2.757808018447E-01
  11 F   1 H    -2.251212415084E-01 -2.748787584916E-01 -2.757808018447E-01
  12 F   1 H     2.251212415084E-01  2.748787584916E-01 -2.757808018447E-01
  13 T   1 H     1.410919348109E-01 -3.589080651891E-01 -3.774983995179E-02
  14 F   1 H    -1.410919348109E-01  3.589080651891E-01 -3.774983995179E-02
  15 F   1 H    -3.589080651891E-01 -1.410919348109E-01  3.774983995179E-02
  16 F   1 H     3.589080651891E-01  1.410919348109E-01  3.774983995179E-02

 T = ATOM BELONGING TO THE ASYMMETRIC UNIT

 TOTAL ENERGY(HF)(AU)(   3) -4.4208679174344E+02     DE (AU)   -4.053E-07

 SYMMETRY ALLOWED FORCES  (COORDINATE, FORCE)

    1  9.1302723E-05    2 -3.2677869E-04    3 -1.2570969E-04    4  1.0235173E-04
    5  9.9658503E-06    6 -8.8480521E-05    7 -4.0828517E-05    8  3.6232647E-05
    9 -1.0816303E-04   10  2.7780234E-06

 GRADIENT NORM     0.000405  GRADIENT THRESHOLD     0.500000

 PREDICTED ENERGY CHANGE    -0.191E-06

 MAX GRADIENT      0.000327  THRESHOLD              0.000450 CONVERGED YES
 RMS GRADIENT      0.000128  THRESHOLD              0.000300 CONVERGED YES
 MAX DISPLAC.      0.006579  THRESHOLD              0.001800 CONVERGED NO
 RMS DISPLAC.      0.002266  THRESHOLD              0.001200 CONVERGED NO
 TTTTTTTTTTTTTTTTTTTTTTTTTTTTTT OPTI        TELAPSE      428.83 TCPU      427.16
 *******************************************************************************
 COORDINATE AND CELL OPTIMIZATION - POINT   13
 *******************************************************************************
 LATTICE PARAMETERS (ANGSTROMS AND DEGREES) - BOHR = 0.5291772083 ANGSTROM
 PRIMITIVE CELL - CENTRING CODE 1/0 VOLUME=   132.914440 - DENSITY  1.500 g/cm^3
         A              B              C           ALPHA      BETA       GAMMA 
     5.36863512     5.36863512     4.61152312    90.000000  90.000000  90.000000
 *******************************************************************************
 ATOMS IN THE ASYMMETRIC UNIT    5 - ATOMS IN THE UNIT CELL:   16
     ATOM              X/A                 Y/B                 Z/C    
 *******************************************************************************
   1 T   6 C     0.000000000000E+00 -5.000000000000E-01  3.462400618583E-01
   2 F   6 C    -5.000000000000E-01  0.000000000000E+00 -3.462400618583E-01
   3 T   8 O     0.000000000000E+00 -5.000000000000E-01 -3.794191037409E-01
   4 F   8 O    -5.000000000000E-01  0.000000000000E+00  3.794191037409E-01
   5 T   7 N     1.523803857065E-01 -3.476196142935E-01  1.825595308054E-01
   6 F   7 N    -1.523803857065E-01  3.476196142935E-01  1.825595308054E-01
   7 F   7 N    -3.476196142935E-01 -1.523803857065E-01 -1.825595308054E-01
   8 F   7 N     3.476196142935E-01  1.523803857065E-01 -1.825595308054E-01
   9 T   1 H     2.749247674748E-01 -2.250752325252E-01  2.757756125671E-01
  10 F   1 H    -2.749247674748E-01  2.250752325252E-01  2.757756125671E-01
  11 F   1 H    -2.250752325252E-01 -2.749247674748E-01 -2.757756125671E-01
  12 F   1 H     2.250752325252E-01  2.749247674748E-01 -2.757756125671E-01
  13 T   1 H     1.410912391479E-01 -3.589087608521E-01 -3.763160469215E-02
  14 F   1 H    -1.410912391479E-01  3.589087608521E-01 -3.763160469215E-02
  15 F   1 H    -3.589087608521E-01 -1.410912391479E-01  3.763160469215E-02
  16 F   1 H     3.589087608521E-01  1.410912391479E-01  3.763160469215E-02

 T = ATOM BELONGING TO THE ASYMMETRIC UNIT

 TOTAL ENERGY(HF)(AU)(   3) -4.4208679220599E+02     DE (AU)   -4.626E-07

 SYMMETRY ALLOWED FORCES  (COORDINATE, FORCE)

    1  1.0019428E-04    2 -2.7620381E-04    3 -2.0080970E-04    4  1.3738208E-04
    5  2.7146126E-05    6 -7.0110223E-05    7  1.7445910E-05    8 -3.0310418E-05
    9 -1.2647924E-04   10  6.3728770E-06

 GRADIENT NORM     0.000410  GRADIENT THRESHOLD     0.500000

 PREDICTED ENERGY CHANGE    -0.166E-06

 MAX GRADIENT      0.000276  THRESHOLD              0.000450 CONVERGED YES
 RMS GRADIENT      0.000130  THRESHOLD              0.000300 CONVERGED YES
 MAX DISPLAC.      0.008662  THRESHOLD              0.001800 CONVERGED NO
 RMS DISPLAC.      0.002992  THRESHOLD              0.001200 CONVERGED NO
 TTTTTTTTTTTTTTTTTTTTTTTTTTTTTT OPTI        TELAPSE      463.95 TCPU      462.28
 *******************************************************************************
 COORDINATE AND CELL OPTIMIZATION - POINT   14
 *******************************************************************************
 LATTICE PARAMETERS (ANGSTROMS AND DEGREES) - BOHR = 0.5291772083 ANGSTROM
 PRIMITIVE CELL - CENTRING CODE 1/0 VOLUME=   132.877458 - DENSITY  1.500 g/cm^3
         A              B              C           ALPHA      BETA       GAMMA 
     5.36713636     5.36713636     4.61281518    90.000000  90.000000  90.000000
 *******************************************************************************
 ATOMS IN THE ASYMMETRIC UNIT    5 - ATOMS IN THE UNIT CELL:   16
     ATOM              X/A                 Y/B                 Z/C    
 *******************************************************************************
   1 T   6 C     0.000000000000E+00 -5.000000000000E-01  3.462357539347E-01
   2 F   6 C    -5.000000000000E-01  0.000000000000E+00 -3.462357539347E-01
   3 T   8 O     0.000000000000E+00 -5.000000000000E-01 -3.795037511705E-01
   4 F   8 O    -5.000000000000E-01  0.000000000000E+00  3.795037511705E-01
   5 T   7 N     1.524137110839E-01 -3.475862889161E-01  1.826024561913E-01
   6 F   7 N    -1.524137110839E-01  3.475862889161E-01  1.826024561913E-01
   7 F   7 N    -3.475862889161E-01 -1.524137110839E-01 -1.826024561913E-01
   8 F   7 N     3.475862889161E-01  1.524137110839E-01 -1.826024561913E-01
   9 T   1 H     2.750062554135E-01 -2.249937445865E-01  2.757637523941E-01
  10 F   1 H    -2.750062554135E-01  2.249937445865E-01  2.757637523941E-01
  11 F   1 H    -2.249937445865E-01 -2.750062554135E-01 -2.757637523941E-01
  12 F   1 H     2.249937445865E-01  2.750062554135E-01 -2.757637523941E-01
  13 T   1 H     1.411074007840E-01 -3.588925992160E-01 -3.751948394256E-02
  14 F   1 H    -1.411074007840E-01  3.588925992160E-01 -3.751948394256E-02
  15 F   1 H    -3.588925992160E-01 -1.411074007840E-01  3.751948394256E-02
  16 F   1 H     3.588925992160E-01  1.411074007840E-01  3.751948394256E-02

 T = ATOM BELONGING TO THE ASYMMETRIC UNIT

 TOTAL ENERGY(HF)(AU)(   3) -4.4208679247921E+02     DE (AU)   -2.732E-07

 SYMMETRY ALLOWED FORCES  (COORDINATE, FORCE)

    1  8.7246614E-05    2 -1.4253897E-04    3 -1.0669410E-04    4  6.7376457E-05
    5  3.8641243E-06    6 -5.2545704E-05    7  6.4385893E-05    8 -4.5978452E-05
    9 -3.8173393E-05   10  8.8663447E-06

 GRADIENT NORM     0.000233  GRADIENT THRESHOLD     0.500000

 PREDICTED ENERGY CHANGE    -0.471E-07

 MAX GRADIENT      0.000143  THRESHOLD              0.000450 CONVERGED YES
 RMS GRADIENT      0.000074  THRESHOLD              0.000300 CONVERGED YES
 MAX DISPLAC.      0.000683  THRESHOLD              0.001800 CONVERGED YES
 RMS DISPLAC.      0.000421  THRESHOLD              0.001200 CONVERGED YES

 CONVERGENCE TESTS SATISFIED AFTER  14 ENERGY AND GRADIENT CALCULATIONS

 ******************************************************************
 * OPT END - CONVERGED * E(AU):  -4.420867924792E+02  POINTS   14 *
 ******************************************************************

 WARNING **** iordo **** not allocated - eigenvalues printing removed
 WARNING **** iordo **** not allocated - eigenvector printing removed
 EIGENVECTORS IN FORTRAN UNIT 10

 NEIGHBORS OF THE NON-EQUIVALENT ATOMS

 N = NUMBER OF NEIGHBORS AT DISTANCE R
    ATOM  N     R/ANG      R/AU   NEIGHBORS (ATOM LABELS AND CELL INDICES)
   1 C    1     1.2651     2.3907   3 O    0 0 1
   1 C    2     1.3813     2.6103   5 N    0 1 0   6 N    0 0 0
   1 C    2     2.0690     3.9098  13 H    0 1 0  14 H    0 0 0
   1 C    2     2.1125     3.9921   9 H    0 1 0  10 H    0 0 0
   1 C    2     2.4406     4.6122  11 H    0 1 1  12 H    0 0 1
   1 C    2     3.0377     5.7404  13 H    0 1 1  14 H    0 0 1

   3 O    1     1.2651     2.3907   1 C    0 0-1
   3 O    2     1.7735     3.3515  11 H    0 1 0  12 H    0 0 0
   3 O    2     1.9067     3.6032  13 H    0 1 0  14 H    0 0 0
   3 O    2     2.3277     4.3988   5 N    0 1-1   6 N    0 0-1
   3 O    2     2.6241     4.9588   9 H    0 1-1  10 H    0 0-1
   3 O    2     2.7902     5.2728   7 N    0 1 0   8 N    0 0 0

   5 N    1     1.0190     1.9256  13 H    0 0 0
   5 N    1     1.0250     1.9369   9 H    0 0 0
   5 N    1     1.3813     2.6103   1 C    0-1 0
   5 N    1     2.3137     4.3723   6 N    0-1 0
   5 N    1     2.3277     4.3988   3 O    0-1 1
   5 N    1     2.4484     4.6268  14 H    0-1 0

   9 H    1     1.0250     1.9369   5 N    0 0 0
   9 H    1     1.7667     3.3386  13 H    0 0 0
   9 H    1     1.7735     3.3515   4 O    0 0 0
   9 H    1     2.1125     3.9921   1 C    0-1 0
   9 H    2     2.2959     4.3387  15 H    1 0 0  16 H    0 0 0
   9 H    1     2.4406     4.6122   2 C    0 0 1

  13 H    1     1.0190     1.9256   5 N    0 0 0
  13 H    1     1.7667     3.3386   9 H    0 0 0
  13 H    1     1.9067     3.6032   3 O    0-1 0
  13 H    1     2.0690     3.9098   1 C    0-1 0
  13 H    1     2.1421     4.0480  14 H    0-1 0
  13 H    2     2.2959     4.3387  11 H    0 0 0  12 H    0-1 0


 FINAL OPTIMIZED GEOMETRY - DIMENSIONALITY OF THE SYSTEM      3
 (NON PERIODIC DIRECTION: LATTICE PARAMETER FORMALLY SET TO 500)
 *******************************************************************************
 LATTICE PARAMETERS (ANGSTROMS AND DEGREES) - BOHR = 0.5291772083 ANGSTROM
 PRIMITIVE CELL - CENTRING CODE 1/0 VOLUME=   132.877458 - DENSITY  1.500 g/cm^3
         A              B              C           ALPHA      BETA       GAMMA 
     5.36713636     5.36713636     4.61281518    90.000000  90.000000  90.000000
 *******************************************************************************
 ATOMS IN THE ASYMMETRIC UNIT    5 - ATOMS IN THE UNIT CELL:   16
     ATOM              X/A                 Y/B                 Z/C    
 *******************************************************************************
   1 T   6 C     0.000000000000E+00 -5.000000000000E-01  3.462357539347E-01
   2 F   6 C    -5.000000000000E-01  0.000000000000E+00 -3.462357539347E-01
   3 T   8 O     0.000000000000E+00 -5.000000000000E-01 -3.795037511705E-01
   4 F   8 O    -5.000000000000E-01  0.000000000000E+00  3.795037511705E-01
   5 T   7 N     1.524137110839E-01 -3.475862889161E-01  1.826024561913E-01
   6 F   7 N    -1.524137110839E-01  3.475862889161E-01  1.826024561913E-01
   7 F   7 N    -3.475862889161E-01 -1.524137110839E-01 -1.826024561913E-01
   8 F   7 N     3.475862889161E-01  1.524137110839E-01 -1.826024561913E-01
   9 T   1 H     2.750062554135E-01 -2.249937445865E-01  2.757637523941E-01
  10 F   1 H    -2.750062554135E-01  2.249937445865E-01  2.757637523941E-01
  11 F   1 H    -2.249937445865E-01 -2.750062554135E-01 -2.757637523941E-01
  12 F   1 H     2.249937445865E-01  2.750062554135E-01 -2.757637523941E-01
  13 T   1 H     1.411074007840E-01 -3.588925992160E-01 -3.751948394256E-02
  14 F   1 H    -1.411074007840E-01  3.588925992160E-01 -3.751948394256E-02
  15 F   1 H    -3.588925992160E-01 -1.411074007840E-01  3.751948394256E-02
  16 F   1 H     3.588925992160E-01  1.411074007840E-01  3.751948394256E-02

 T = ATOM BELONGING TO THE ASYMMETRIC UNIT
 INFORMATION **** fort.34 **** GEOMETRY OUTPUT FILE

 DIRECT LATTICE VECTORS CARTESIAN COMPONENTS (ANGSTROM)
          X                    Y                    Z
   0.536713636096E+01   0.000000000000E+00   0.000000000000E+00
   0.000000000000E+00   0.536713636096E+01   0.000000000000E+00
   0.000000000000E+00   0.000000000000E+00   0.461281517629E+01


 CARTESIAN COORDINATES - PRIMITIVE CELL
 *******************************************************************************
 *      ATOM          X(ANGSTROM)         Y(ANGSTROM)         Z(ANGSTROM)
 *******************************************************************************
   1     6 C     0.000000000000E+00  2.683568180478E+00  1.597121540324E+00
   2     6 C     2.683568180478E+00  0.000000000000E+00 -1.597121540324E+00
   3     8 O     0.000000000000E+00  2.683568180478E+00 -1.750580662858E+00
   4     8 O     2.683568180478E+00  0.000000000000E+00  1.750580662858E+00
   5     7 N     8.180251706664E-01 -1.865543009811E+00  8.423113811469E-01
   6     7 N    -8.180251706664E-01  1.865543009811E+00  8.423113811469E-01
   7     7 N    -1.865543009811E+00 -8.180251706664E-01 -8.423113811469E-01
   8     7 N     1.865543009811E+00  8.180251706664E-01 -8.423113811469E-01
   9     1 H     1.475996072920E+00 -1.207572107558E+00  1.272047222114E+00
  10     1 H    -1.475996072920E+00  1.207572107558E+00  1.272047222114E+00
  11     1 H    -1.207572107558E+00 -1.475996072920E+00 -1.272047222114E+00
  12     1 H     1.207572107558E+00  1.475996072920E+00 -1.272047222114E+00
  13     1 H     7.573426615476E-01 -1.926225518930E+00 -1.730704449368E-01
  14     1 H    -7.573426615476E-01  1.926225518930E+00 -1.730704449368E-01
  15     1 H    -1.926225518930E+00 -7.573426615476E-01  1.730704449368E-01
  16     1 H     1.926225518930E+00  7.573426615476E-01  1.730704449368E-01

 ****   8 SYMMOPS - TRANSLATORS IN FRACTIONARY UNITS
  V INV                   ROTATION MATRICES                       TRANSLATOR
  1  1  1.00  0.00  0.00  0.00  1.00  0.00  0.00  0.00  1.00    0.00  0.00  0.00
  2  2 -1.00  0.00  0.00  0.00 -1.00  0.00  0.00  0.00  1.00    0.00  0.00  0.00
  3  3  1.00  0.00  0.00  0.00 -1.00  0.00  0.00  0.00 -1.00    0.50  0.50  0.00
  4  4 -1.00  0.00  0.00  0.00  1.00  0.00  0.00  0.00 -1.00    0.50  0.50  0.00
  5  5  0.00  1.00  0.00  1.00  0.00  0.00  0.00  0.00  1.00    0.50  0.50  0.00
  6  6  0.00 -1.00  0.00 -1.00  0.00  0.00  0.00  0.00  1.00    0.50  0.50  0.00
  7  8  0.00 -1.00  0.00  1.00  0.00  0.00  0.00  0.00 -1.00    0.00  0.00  0.00
  8  7  0.00  1.00  0.00 -1.00  0.00  0.00  0.00  0.00 -1.00    0.00  0.00  0.00
 TTTTTTTTTTTTTTTTTTTTTTTTTTTTTT END         TELAPSE      500.32 TCPU      497.86
 EEEEEEEEEE TERMINATION  DATE 23 02 2010 TIME 10:23:06.1
