/home/piero/bin/CRY06/Pcrystal
/scr/piero/CRY_data/tmp_p17149
H2O polymer 3-21G
POLYMER
1
4.965635
6
8  0.0  0.0  0.0
1  0.032558 0.836088 -0.400375
1  0.168195 -0.461051 0.
8  0.5 -1.370589 0.
1  0.532558 -2.206677 0.400375
1 0.668195 -0.909537 0.
OPTGEOM
FULLOPTG
ENDOPT
ENDG
8 2
1 0 3 2.0 0.0
1 1 3 6.0 0.0
1 1
1 0 3 1.0 0.0
99   0
ENDBS
BIESPLIT
2
SHRINK
2 2
FMIXING
30
ENDSCF

Tue Feb 23 11:40:20 GMT 2010
directory scratch (integrals and temporary files) /home/piero/bin/CRY06_tmp
 PROCESS            0  OF            2  WORKING

         
 *******************************************************************************
 *                                                                             *
 *                                CRYSTAL06                                    *
 *                              Release : 1.0                                  *
 *                      V1.0.2 - parallel executable                           *
 *                                                                             *
 *                                                                             *
 *                                                                             *
 *                              MAIN AUTHORS                                   *
 *                                                                             *
 *    R. DOVESI(1,10), V.R. SAUNDERS(2), C. ROETTI(1,10), R. ORLANDO (1,3),    *
 *  C.M. ZICOVICH-WILSON(1,4), F. PASCALE(5), B. CIVALLERI(1,10), K. DOLL(6),  *
 *       N.M. HARRISON(2,7), I. J. BUSH(2), Ph. D'ARCO(8), M. LLUNELL(9)       *
 *                                                                             *
 * (1) THEORETICAL CHEMISTRY GROUP - UNIVERSITA' DI TORINO - TORINO (ITALY)    *
 *      http://www.crystal.unito.it                                            *
 * (2) COMPUTATIONAL SCIENCE & ENGINEERING DEPARTMENT - CCLRC DARESBURY (UK)   *
 *     http://www.cse.clrc.ac.uk/cmg/CRYSTAL/                                  *
 * (3) UNIVERSITA' DEL PIEMONTE ORIENTALE - ALESSANDRIA (ITALY)                *
 * (4) UNIVERSIDAD AUTONOMA DEL ESTADO DE MORELOS - CUERNAVACA (MEXICO)        *
 * (5) UNIVERSITE' HENRI POINCARE' - NANCY (FRANCE)                            *
 * (6) MPI FUER FESTKOERPERFORSCHUNG - STUTTGART (GERMANY)                     *
 * (7) IMPERIAL COLLEGE - LONDON (UK)                                          *
 * (8) UNIVERSITE' PIERRE ET MARIE CURIE - PARIS (FRANCE)                      *
 * (9) UNIVERSIDAD DE BARCELONA - BARCELONA (SPAIN)                            *
 *(10) NIS - NANOSTRUCTURED INTERFACES AND SURFACES - TORINO (ITALY)           *
 *     http://www.crystal.unito.it                                             *
 *******************************************************************************
 EEEEEEEEEE STARTING  DATE 23 02 2010 TIME 11:40:21.2
 H2O polymer 3-21G                                                               

 POLYMER CALCULATION
 POLYMER GROUP N.  1                  :  P 1             
 CORRESPONDING SPACE GROUP            :  P 1             
 (THE SPACE GROUP SYMBOL AND EQUIVALENT POSITIONS REFER TO A Z-ORIENTED POLYMER)

 LATTICE PARAMETER (ANGSTROMS) - CONVENTIONAL CELL        4.96563


 NUMBER OF IRREDUCIBLE ATOMS IN THE CONVENTIONAL CELL:    6

 INPUT COORDINATES

 ATOM AT. N.              COORDINATES
   1   8     0.000000000000E+00  0.000000000000E+00  0.000000000000E+00
   2   1     3.255800000000E-02  8.360880000000E-01 -4.003750000000E-01
   3   1     1.681950000000E-01 -4.610510000000E-01  0.000000000000E+00
   4   8     5.000000000000E-01 -1.370589000000E+00  0.000000000000E+00
   5   1     5.325580000000E-01 -2.206677000000E+00  4.003750000000E-01
   6   1     6.681950000000E-01 -9.095370000000E-01  0.000000000000E+00

 *******************************************************************************

 << INFORMATION >>: FROM NOW ON, ALL COORDINATES REFER TO THE PRIMITIVE CELL

 *******************************************************************************

 LATTICE PARAMETERS  (ANGSTROMS AND DEGREES) - PRIMITIVE CELL
       A          B          C         ALPHA     BETA     GAMMA        VOLUME
    4.96563  500.00000  500.00000    90.00000  90.00000  90.00000      4.965635

 COORDINATES OF THE EQUIVALENT ATOMS (ANGSTROMS)

 N. ATOM EQUIV AT. N.          X                  Y                  Z

   1   1   1    8 O     0.00000000000E+00  0.00000000000E+00  0.00000000000E+00

   2   2   1    1 H     1.61671144330E-01  8.36088000000E-01 -4.00375000000E-01

   3   3   1    1 H     8.35194978825E-01 -4.61051000000E-01  0.00000000000E+00

   4   4   1    8 O    -2.48281750000E+00 -1.37058900000E+00  3.04057450424E-16

   5   5   1    1 H    -2.32114635567E+00 -2.20667700000E+00  4.00375000000E-01

   6   6   1    1 H    -1.64762252117E+00 -9.09537000000E-01  3.04057450424E-16

 NUMBER OF SYMMETRY OPERATORS         :    1
 *******************************************************************************
 * GEOMETRY EDITING - INPUT COORDINATES ARE GIVEN IN ANGSTROM          
 *******************************************************************************
 INFORMATION **** FULLOPTG **** full optimization, atoms and cell
 *******************************************************************************
 COMBINED CELL/ATOM OPTIMIZATION CONTROL

 MAXIMUM GRADIENT COMPONENT   0.00045 MAXIMUM DISPLACEMENT COMPONENT     0.00030
 R.M.S. OF GRADIENT COMPONENT 0.00180 R.M.S. OF DISPLACEMENT COMPONENTS  0.00120
 THRESHOLD ON ENERGY CHANGE 0.100E-06 EXTRAPOLATING POLYNOMIAL ORDER           2
 MAXIMUM ALLOWED NUMBER OF STEPS  100 SORTING OF ENERGY POINTS:               NO
 ANALYTICAL  GRADIENT                 HESSIAN UPDATING                      BFGS
 STEP SIZE NUMERICAL GRADIENT 0.00100
 INITIAL HESSIAN MATRIX: SCHLEGEL MODEL 2
 *******************************************************************************


 GCALCO - MAX INDICES DIRECT LATTICE VECTOR****   0   0
 NO.OF VECTORS CREATED 6999 STARS 3500 RMAX 32833.53212 BOHR

 GEOMETRY FOR WAVE FUNCTION - DIMENSIONALITY OF THE SYSTEM    1
 (NON PERIODIC DIRECTION: LATTICE PARAMETER FORMALLY SET TO 500)
 *******************************************************************************
 LATTICE PARAMETERS (ANGSTROMS AND DEGREES) - BOHR = 0.5291772083 ANGSTROM
 PRIMITIVE CELL
         A              B              C           ALPHA      BETA       GAMMA 
     4.96563500   500.00000000   500.00000000    90.000000  90.000000  90.000000
 *******************************************************************************
 ATOMS IN THE ASYMMETRIC UNIT    6 - ATOMS IN THE UNIT CELL:    6
     ATOM              X/A             Y(ANGSTROM)         Z(ANGSTROM)
 *******************************************************************************
   1 T   8 O     0.000000000000E+00  0.000000000000E+00  0.000000000000E+00
   2 T   1 H     3.255800000000E-02  8.360880000000E-01 -4.003750000000E-01
   3 T   1 H     1.681950000000E-01 -4.610510000000E-01  0.000000000000E+00
   4 T   8 O     5.000000000000E-01 -1.370589000000E+00  3.040574504242E-16
   5 T   1 H    -4.674420000000E-01 -2.206677000000E+00  4.003750000000E-01
   6 T   1 H    -3.318050000000E-01 -9.095370000000E-01  3.040574504242E-16

 T = ATOM BELONGING TO THE ASYMMETRIC UNIT

 ****   1 SYMMOPS - TRANSLATORS IN FRACTIONARY UNITS
  V INV                   ROTATION MATRICES                       TRANSLATOR
  1  1  1.00  0.00  0.00  0.00  1.00  0.00  0.00  0.00  1.00    0.00  0.00  0.00

 DIRECT LATTICE VECTORS CARTESIAN COMPONENTS (ANGSTROM)
          X                    Y                    Z
   0.496563500000E+01   0.000000000000E+00   0.000000000000E+00
   0.000000000000E+00   0.500000000000E+03   0.000000000000E+00
   0.000000000000E+00   0.000000000000E+00   0.500000000000E+03


 CARTESIAN COORDINATES - PRIMITIVE CELL
 *******************************************************************************
 *      ATOM          X(ANGSTROM)         Y(ANGSTROM)         Z(ANGSTROM)
 *******************************************************************************
   1     8 O     0.000000000000E+00  0.000000000000E+00  0.000000000000E+00
   2     1 H     1.616711443300E-01  8.360880000000E-01 -4.003750000000E-01
   3     1 H     8.351949788250E-01 -4.610510000000E-01  0.000000000000E+00
   4     8 O     2.482817500000E+00 -1.370589000000E+00  3.040574504242E-16
   5     1 H    -2.321146355670E+00 -2.206677000000E+00  4.003750000000E-01
   6     1 H    -1.647622521175E+00 -9.095370000000E-01  3.040574504242E-16

 *******************************************************************************
 LOCAL ATOMIC FUNCTIONS BASIS SET
 *******************************************************************************
   ATOM  X(AU)  Y(AU)  Z(AU)    NO. TYPE  EXPONENT  S COEF   P COEF   D/F/G COEF
 *******************************************************************************
   1 O   0.000  0.000  0.000
                                  1 S  
                                         1.307E+02 1.543E-01 0.000E+00 0.000E+00
                                         2.381E+01 5.353E-01 0.000E+00 0.000E+00
                                         6.444E+00 4.446E-01 0.000E+00 0.000E+00
                             2-   5 SP 
                                         5.033E+00-9.997E-02 1.559E-01 0.000E+00
                                         1.170E+00 3.995E-01 6.077E-01 0.000E+00
                                         3.804E-01 7.001E-01 3.920E-01 0.000E+00
   2 H   0.306  1.580 -0.757
                                  6 S  
                                         3.425E+00 1.543E-01 0.000E+00 0.000E+00
                                         6.239E-01 5.353E-01 0.000E+00 0.000E+00
                                         1.689E-01 4.446E-01 0.000E+00 0.000E+00
   3 H   1.578 -0.871  0.000
   4 O   4.692 -2.590  0.000
   5 H  -4.386 -4.170  0.757
   6 H  -3.114 -1.719  0.000
 INFORMATION **** BIESPLIT **** BIELECTRONIC INTEGRALS SPLIT FILES         2
 *******************************************************************************
 N. OF ATOMS PER CELL        6  COULOMB OVERLAP TOL         (T1) 10** -6
 NUMBER OF SHELLS            8  COULOMB PENETRATION TOL     (T2) 10** -6
 NUMBER OF AO               14  EXCHANGE OVERLAP TOL        (T3) 10** -6
 N. OF ELECTRONS PER CELL   20  EXCHANGE PSEUDO OVP (F(G))  (T4) 10** -6
 CORE ELECTRONS PER CELL     4  EXCHANGE PSEUDO OVP (P(G))  (T5) 10**-12
 N. OF SYMMETRY OPERATORS    1  POLE ORDER IN MONO ZONE                4
 *******************************************************************************
 TYPE OF CALCULATION :  RESTRICTED CLOSED SHELL
 HARTREE-FOCK HAMILTONIAN

 CAPPA: IS1=  2 IS2=  1 IS3=  1K POINTS MONKHORST NET    2 SYMMOPS K SPACE  2 SYMMOPS G SPACE  1


 CAPPA1: ISJ1=  2 ISJ2=  1 ISJ3=  1K POINTS GILAT NET    2 SYMMOPS K SPACE  2 SYMMOPS G SPACE  1

 *******************************************************************************
 MAX NUMBER OF SCF CYCLES      50  CONVERGENCE ON DELTAP        10**-16
 WEIGHT OF F(I) IN F(I+1)      30% CONVERGENCE ON ENERGY        10**- 7
 SHRINK. FACT.(MONKH.)    2  1  1  NUMBER OF K POINTS IN THE IBZ      2
 SHRINKING FACTOR(GILAT NET)    2  NUMBER OF K POINTS(GILAT NET)      2
 *******************************************************************************
 *** K POINTS COORDINATES (OBLIQUE COORDINATES IN UNITS OF IS =  2)
   1-R(  0  0  0)   2-R(  1  0  0)

 DIRECT LATTICE VECTORS COMPON. (A.U.)     RECIP. LATTICE VECTORS COMPON. (A.U.) 
        X            Y            Z              X            Y            Z
    9.3836902    0.0000000    0.0000000      0.6695858    0.0000000    0.0000000
    0.0000000  944.8630670    0.0000000      0.0000000    0.0066498    0.0000000
    0.0000000    0.0000000  944.8630670      0.0000000    0.0000000    0.0066498

 DISK SPACE FOR EIGENVECTORS (FTN 10)        392 REALS

 SYMMETRY ADAPTION OF THE BLOCH FUNCTIONS DISABLED
 TTTTTTTTTTTTTTTTTTTTTTTTTTTTTT gordsh1     TELAPSE        0.30 TCPU        0.02

 DIMENSIONS  P(G)=     518 F(G)=     190 P(G),F(G) (IRR)     314
 MAX G-VECTOR INDEX FOR 1- AND 2-ELECTRON INTEGRALS   5

 INFORMATION **** GENBUF **** COULOMB BIPO BUFFER LENGTH (WORDS) =      4950
 TTTTTTTTTTTTTTTTTTTTTTTTTTTTTT INPUT       TELAPSE        0.30 TCPU        0.02

 NEIGHBORS OF THE NON-EQUIVALENT ATOMS

 N = NUMBER OF NEIGHBORS AT DISTANCE R
    ATOM  N     R/ANG      R/AU   NEIGHBORS (ATOM LABELS AND CELL INDICES)
   1 O    1     0.9410     1.7782   2 H    0 0 0
   1 O    1     0.9540     1.8028   3 H    0 0 0
   1 O    1     1.8820     3.5565   6 H    0 0 0
   1 O    2     2.8360     5.3593   4 O    0 0 0   4 O   -1 0 0
   1 O    1     3.2276     6.0993   5 H    0 0 0
   1 O    1     3.4404     6.5014   6 H    1 0 0

   2 H    1     0.9410     1.7782   1 O    0 0 0
   2 H    1     1.5154     2.8637   3 H    0 0 0
   2 H    1     2.5458     4.8108   6 H    0 0 0
   2 H    1     3.2276     6.0993   4 O    0 0 0
   2 H    1     3.4674     6.5525   4 O   -1 0 0
   2 H    1     3.6290     6.8579   6 H    1 0 0

   3 H    1     0.9540     1.8028   1 O    0 0 0
   3 H    1     1.5154     2.8637   2 H    0 0 0
   3 H    1     1.8820     3.5565   4 O    0 0 0
   3 H    2     2.5230     4.7678   6 H    0 0 0   6 H    1 0 0
   3 H    1     2.5458     4.8108   5 H    1 0 0
   3 H    1     3.4404     6.5014   4 O   -1 0 0

   4 O    1     0.9410     1.7782   5 H    1 0 0
   4 O    1     0.9540     1.8028   6 H    1 0 0
   4 O    1     1.8820     3.5565   3 H    0 0 0
   4 O    2     2.8360     5.3593   1 O    0 0 0   1 O    1 0 0
   4 O    1     3.2276     6.0993   2 H    0 0 0
   4 O    1     3.4404     6.5014   3 H    1 0 0

   5 H    1     0.9410     1.7782   4 O   -1 0 0
   5 H    1     1.5154     2.8637   6 H    0 0 0
   5 H    1     2.5458     4.8108   3 H   -1 0 0
   5 H    1     3.2276     6.0993   1 O    0 0 0
   5 H    1     3.4674     6.5525   1 O   -1 0 0
   5 H    1     3.6290     6.8579   3 H    0 0 0

   6 H    1     0.9540     1.8028   4 O   -1 0 0
   6 H    1     1.5154     2.8637   5 H    0 0 0
   6 H    1     1.8820     3.5565   1 O    0 0 0
   6 H    2     2.5230     4.7678   3 H    0 0 0   3 H   -1 0 0
   6 H    1     2.5458     4.8108   2 H    0 0 0
   6 H    1     3.4404     6.5014   1 O   -1 0 0


 SYMMETRY ALLOWED ELASTIC DISTORTION 1
  1.0000000

 SYMMETRY ALLOWED INTERNAL DEGREE(S) OF FREEDOM:  14
 TTTTTTTTTTTTTTTTTTTTTTTTTTTTTT SYMM        TELAPSE        0.30 TCPU        0.02
 TTTTTTTTTTTTTTTTTTTTTTTTTTTTTT INT_SCREEN  TELAPSE        0.30 TCPU        0.02
 *******************************************************************************
 COORDINATE AND CELL OPTIMIZATION - POINT    1
 INFORMATION **** GENBUF **** COULOMB BIPO BUFFER LENGTH (WORDS) =      4950
 INFORMATION **** EXCBUF **** EXCH. BIPO BUFFER: WORDS USED =      4950
 TTTTTTTTTTTTTTTTTTTTTTTTTTTTTT MONIRR      TELAPSE        0.31 TCPU        0.02

  GAUSS70 FOR COULOMB   GAUSS70 FOR EXCHANGE
crystal executable from directory /home/piero/bin/CRY06
test cases input: extensions .d12 , .d3
CRY2K6_GRA graphical scripts /home/piero/bin/CRY06/crgra2006/maps06, doss06, band06
CRY2K6_UTILS miscellanea utilities /home/piero/bin/CRY06/utils06/runcry06 runprop06 spacg
 PROCESS            1  OF            2  WORKING
 **SHELL_ORTHODOX** SPACE FOR BIEL. INTEGRALS     1 BUFFERS
 TTTTTTTTTTTTTTTTTTTTTTTTTTTTTT SHLC        TELAPSE        0.39 TCPU        0.11
 TTTTTTTTTTTTTTTTTTTTTTTTTTTTTT MONMAD      TELAPSE        0.41 TCPU        0.12
 TTTTTTTTTTTTTTTTTTTTTTTTTTTTTT INT_CALC    TELAPSE        0.41 TCPU        0.12

 *******************************************************************************
 H2O polymer 3-21G                                                               
 CRYSTAL - SCF - TYPE OF CALCULATION :  RESTRICTED CLOSED SHELL
 *******************************************************************************

 CAPPA: IS1=  2 IS2=  1 IS3=  1K POINTS MONKHORST NET    2 SYMMOPS K SPACE  2 SYMMOPS G SPACE  1


 CAPPA1: ISJ1=  2 ISJ2=  1 ISJ3=  1K POINTS GILAT NET    2 SYMMOPS K SPACE  2 SYMMOPS G SPACE  1

 TTTTTTTTTTTTTTTTTTTTTTTTTTTTTT SDIK        TELAPSE        0.41 TCPU        0.13

 AAAAAAAAAAAAAAAAAAAAAAAAAAAAAAAAAAAAAAAAAAAAAAAAAAAAAAAAAAAAAAAAAAAAAAAAAAAAAAA
         ATOMIC WAVEFUNCTION(S)


 NUCLEAR CHARGE  8.0  SYMMETRY SPECIES            S    P
 N. ELECTRONS    8.0  NUMBER OF PRIMITIVE GTOS    6    3
                      NUMBER OF CONTRACTED GTOS   2    1
                      NUMBER OF CLOSED SHELLS     2    0
                      OPEN SHELL OCCUPATION       0    4

  ZNUC SCFIT  TOTAL HF ENERGY   KINETIC ENERGY   VIRIAL THEOREM ACCURACY
   8.0   1   -7.380415026E+01  7.344496710E+01 -2.004890507E+00  0.0E+00

 NUCLEAR CHARGE  1.0  SYMMETRY SPECIES            S
 N. ELECTRONS    1.0  NUMBER OF PRIMITIVE GTOS    3
                      NUMBER OF CONTRACTED GTOS   1
                      NUMBER OF CLOSED SHELLS     0
                      OPEN SHELL OCCUPATION       1

  ZNUC SCFIT  TOTAL HF ENERGY   KINETIC ENERGY   VIRIAL THEOREM ACCURACY
   1.0   1   -4.665818504E-01  7.600318799E-01 -1.613897736E+00  0.0E+00

 AAAAAAAAAAAAAAAAAAAAAAAAAAAAAAAAAAAAAAAAAAAAAAAAAAAAAAAAAAAAAAAAAAAAAAAAAAAAAAA

 CHARGE NORMALIZATION FACTOR   1.00000000
 TOTAL ATOMIC CHARGES:
   8.0000000   1.0000000   1.0000000   8.0000000   1.0000000   1.0000000
 TTTTTTTTTTTTTTTTTTTTTTTTTTTTTT QGAM        TELAPSE        0.41 TCPU        0.13
 TTTTTTTTTTTTTTTTTTTTTTTTTTTTTT BIEL        TELAPSE        0.41 TCPU        0.13
 TTTTTTTTTTTTTTTTTTTTTTTTTTTTTT TOTENY      TELAPSE        0.41 TCPU        0.13
 CYC   0 ETOT(AU) -1.494518147981E+02 DETOT -1.49E+02 tst  0.00E+00 PX  1.00E+00
 TTTTTTTTTTTTTTTTTTTTTTTTTTTTTT FDIK        TELAPSE        0.41 TCPU        0.13
 INSULATING STATE - TOP OF VALENCE BANDS (A.U.) -2.5939731E-01
 TTTTTTTTTTTTTTTTTTTTTTTTTTTTTT PDIG        TELAPSE        0.41 TCPU        0.13
 CHARGE NORMALIZATION FACTOR   1.00000000
 TOTAL ATOMIC CHARGES:
   8.7105855   0.6396642   0.6497502   8.7105856   0.6396642   0.6497503
 TTTTTTTTTTTTTTTTTTTTTTTTTTTTTT QGAM        TELAPSE        0.41 TCPU        0.13
 TTTTTTTTTTTTTTTTTTTTTTTTTTTTTT BIEL        TELAPSE        0.42 TCPU        0.13
 TTTTTTTTTTTTTTTTTTTTTTTTTTTTTT TOTENY      TELAPSE        0.42 TCPU        0.13
 CYC   1 ETOT(AU) -1.498917382032E+02 DETOT -4.40E-01 tst  0.00E+00 PX  1.00E+00
 TTTTTTTTTTTTTTTTTTTTTTTTTTTTTT FDIK        TELAPSE        0.42 TCPU        0.13
 INSULATING STATE - TOP OF VALENCE BANDS (A.U.) -2.7766302E-01
 TTTTTTTTTTTTTTTTTTTTTTTTTTTTTT PDIG        TELAPSE        0.42 TCPU        0.13
 CHARGE NORMALIZATION FACTOR   1.00000000
 TOTAL ATOMIC CHARGES:
   8.5015533   0.7629088   0.7355218   8.5016367   0.7629119   0.7354675
 TTTTTTTTTTTTTTTTTTTTTTTTTTTTTT QGAM        TELAPSE        0.42 TCPU        0.14
 TTTTTTTTTTTTTTTTTTTTTTTTTTTTTT BIEL        TELAPSE        0.42 TCPU        0.14
 TTTTTTTTTTTTTTTTTTTTTTTTTTTTTT TOTENY      TELAPSE        0.42 TCPU        0.14
 CYC   2 ETOT(AU) -1.499403283251E+02 DETOT -4.86E-02 tst  4.93E-03 PX  1.35E-01
 TTTTTTTTTTTTTTTTTTTTTTTTTTTTTT FDIK        TELAPSE        0.42 TCPU        0.14
 INSULATING STATE - TOP OF VALENCE BANDS (A.U.) -3.2786871E-01
 TTTTTTTTTTTTTTTTTTTTTTTTTTTTTT PDIG        TELAPSE        0.42 TCPU        0.14
 CHARGE NORMALIZATION FACTOR   1.00000000
 TOTAL ATOMIC CHARGES:
   8.4467534   0.7973943   0.7558489   8.4467339   0.7974008   0.7558687
 TTTTTTTTTTTTTTTTTTTTTTTTTTTTTT QGAM        TELAPSE        0.42 TCPU        0.14
 TTTTTTTTTTTTTTTTTTTTTTTTTTTTTT BIEL        TELAPSE        0.42 TCPU        0.14
 TTTTTTTTTTTTTTTTTTTTTTTTTTTTTT TOTENY      TELAPSE        0.42 TCPU        0.14
 CYC   3 ETOT(AU) -1.499449395349E+02 DETOT -4.61E-03 tst  4.39E-04 PX  4.21E-02
 TTTTTTTTTTTTTTTTTTTTTTTTTTTTTT FDIK        TELAPSE        0.42 TCPU        0.14
 INSULATING STATE - TOP OF VALENCE BANDS (A.U.) -3.5500029E-01
 TTTTTTTTTTTTTTTTTTTTTTTTTTTTTT PDIG        TELAPSE        0.42 TCPU        0.14
 CHARGE NORMALIZATION FACTOR   1.00000000
 TOTAL ATOMIC CHARGES:
   8.4315871   0.8074305   0.7609805   8.4315837   0.8074373   0.7609809
 TTTTTTTTTTTTTTTTTTTTTTTTTTTTTT QGAM        TELAPSE        0.42 TCPU        0.14
 TTTTTTTTTTTTTTTTTTTTTTTTTTTTTT BIEL        TELAPSE        0.43 TCPU        0.14
 TTTTTTTTTTTTTTTTTTTTTTTTTTTTTT TOTENY      TELAPSE        0.43 TCPU        0.14
 CYC   4 ETOT(AU) -1.499455761674E+02 DETOT -6.37E-04 tst  5.15E-05 PX  1.37E-02
 TTTTTTTTTTTTTTTTTTTTTTTTTTTTTT FDIK        TELAPSE        0.43 TCPU        0.14
 INSULATING STATE - TOP OF VALENCE BANDS (A.U.) -3.6671887E-01
 TTTTTTTTTTTTTTTTTTTTTTTTTTTTTT PDIG        TELAPSE        0.43 TCPU        0.14
 CHARGE NORMALIZATION FACTOR   1.00000000
 TOTAL ATOMIC CHARGES:
   8.4271243   0.8105071   0.7623680   8.4271247   0.8105085   0.7623673
 TTTTTTTTTTTTTTTTTTTTTTTTTTTTTT QGAM        TELAPSE        0.43 TCPU        0.14
 TTTTTTTTTTTTTTTTTTTTTTTTTTTTTT BIEL        TELAPSE        0.43 TCPU        0.15
 TTTTTTTTTTTTTTTTTTTTTTTTTTTTTT TOTENY      TELAPSE        0.43 TCPU        0.15
 CYC   5 ETOT(AU) -1.499456950773E+02 DETOT -1.19E-04 tst  7.17E-06 PX  5.38E-03
 TTTTTTTTTTTTTTTTTTTTTTTTTTTTTT FDIK        TELAPSE        0.43 TCPU        0.15
 INSULATING STATE - TOP OF VALENCE BANDS (A.U.) -3.7140009E-01
 TTTTTTTTTTTTTTTTTTTTTTTTTTTTTT PDIG        TELAPSE        0.43 TCPU        0.15
 CHARGE NORMALIZATION FACTOR   1.00000000
 TOTAL ATOMIC CHARGES:
   8.4257313   0.8114670   0.7628014   8.4257317   0.8114672   0.7628013
 TTTTTTTTTTTTTTTTTTTTTTTTTTTTTT QGAM        TELAPSE        0.43 TCPU        0.15
 TTTTTTTTTTTTTTTTTTTTTTTTTTTTTT BIEL        TELAPSE        0.43 TCPU        0.15
 TTTTTTTTTTTTTTTTTTTTTTTTTTTTTT TOTENY      TELAPSE        0.43 TCPU        0.15
 CYC   6 ETOT(AU) -1.499457209559E+02 DETOT -2.59E-05 tst  1.16E-06 PX  2.75E-03
 TTTTTTTTTTTTTTTTTTTTTTTTTTTTTT FDIK        TELAPSE        0.43 TCPU        0.15
 INSULATING STATE - TOP OF VALENCE BANDS (A.U.) -3.7320952E-01
 TTTTTTTTTTTTTTTTTTTTTTTTTTTTTT PDIG        TELAPSE        0.43 TCPU        0.15
 CHARGE NORMALIZATION FACTOR   1.00000000
 TOTAL ATOMIC CHARGES:
   8.4252592   0.8117628   0.7629779   8.4252590   0.8117630   0.7629782
 TTTTTTTTTTTTTTTTTTTTTTTTTTTTTT QGAM        TELAPSE        0.44 TCPU        0.15
 TTTTTTTTTTTTTTTTTTTTTTTTTTTTTT BIEL        TELAPSE        0.44 TCPU        0.15
 TTTTTTTTTTTTTTTTTTTTTTTTTTTTTT TOTENY      TELAPSE        0.44 TCPU        0.15
 CYC   7 ETOT(AU) -1.499457270063E+02 DETOT -6.05E-06 tst  2.73E-07 PX  1.37E-03
 TTTTTTTTTTTTTTTTTTTTTTTTTTTTTT FDIK        TELAPSE        0.44 TCPU        0.16
 INSULATING STATE - TOP OF VALENCE BANDS (A.U.) -3.7390293E-01
 TTTTTTTTTTTTTTTTTTTTTTTTTTTTTT PDIG        TELAPSE        0.44 TCPU        0.16
 CHARGE NORMALIZATION FACTOR   1.00000000
 TOTAL ATOMIC CHARGES:
   8.4250817   0.8118479   0.7630704   8.4250816   0.8118479   0.7630706
 TTTTTTTTTTTTTTTTTTTTTTTTTTTTTT QGAM        TELAPSE        0.44 TCPU        0.16
 TTTTTTTTTTTTTTTTTTTTTTTTTTTTTT BIEL        TELAPSE        0.44 TCPU        0.16
 TTTTTTTTTTTTTTTTTTTTTTTTTTTTTT TOTENY      TELAPSE        0.44 TCPU        0.16
 CYC   8 ETOT(AU) -1.499457284747E+02 DETOT -1.47E-06 tst  6.95E-08 PX  6.82E-04
 TTTTTTTTTTTTTTTTTTTTTTTTTTTTTT FDIK        TELAPSE        0.44 TCPU        0.16
 INSULATING STATE - TOP OF VALENCE BANDS (A.U.) -3.7417066E-01
 TTTTTTTTTTTTTTTTTTTTTTTTTTTTTT PDIG        TELAPSE        0.44 TCPU        0.16
 CHARGE NORMALIZATION FACTOR   1.00000000
 TOTAL ATOMIC CHARGES:
   8.4250076   0.8118669   0.7631254   8.4250075   0.8118669   0.7631256
 TTTTTTTTTTTTTTTTTTTTTTTTTTTTTT QGAM        TELAPSE        0.44 TCPU        0.16
 TTTTTTTTTTTTTTTTTTTTTTTTTTTTTT BIEL        TELAPSE        0.44 TCPU        0.16
 TTTTTTTTTTTTTTTTTTTTTTTTTTTTTT TOTENY      TELAPSE        0.44 TCPU        0.16
 CYC   9 ETOT(AU) -1.499457288411E+02 DETOT -3.66E-07 tst  1.70E-08 PX  3.38E-04
 TTTTTTTTTTTTTTTTTTTTTTTTTTTTTT FDIK        TELAPSE        0.44 TCPU        0.16
 INSULATING STATE - TOP OF VALENCE BANDS (A.U.) -3.7427600E-01
 TTTTTTTTTTTTTTTTTTTTTTTTTTTTTT PDIG        TELAPSE        0.44 TCPU        0.16
 CHARGE NORMALIZATION FACTOR   1.00000000
 TOTAL ATOMIC CHARGES:
   8.4249737   0.8118671   0.7631591   8.4249737   0.8118670   0.7631594
 TTTTTTTTTTTTTTTTTTTTTTTTTTTTTT QGAM        TELAPSE        0.44 TCPU        0.16
 TTTTTTTTTTTTTTTTTTTTTTTTTTTTTT BIEL        TELAPSE        0.45 TCPU        0.16
 TTTTTTTTTTTTTTTTTTTTTTTTTTTTTT TOTENY      TELAPSE        0.45 TCPU        0.16
 CYC  10 ETOT(AU) -1.499457289351E+02 DETOT -9.40E-08 tst  4.09E-09 PX  1.68E-04
 TTTTTTTTTTTTTTTTTTTTTTTTTTTTTT FDIK        TELAPSE        0.45 TCPU        0.16
 INSULATING STATE - TOP OF VALENCE BANDS (A.U.) -3.7431851E-01
 TTTTTTTTTTTTTTTTTTTTTTTTTTTTTT PDIG        TELAPSE        0.45 TCPU        0.16
 CHARGE NORMALIZATION FACTOR   1.00000000
 TOTAL ATOMIC CHARGES:
   8.4249571   0.8118630   0.7631798   8.4249572   0.8118629   0.7631799
 TTTTTTTTTTTTTTTTTTTTTTTTTTTTTT QGAM        TELAPSE        0.45 TCPU        0.16
 TTTTTTTTTTTTTTTTTTTTTTTTTTTTTT BIEL        TELAPSE        0.45 TCPU        0.17
 +++ ENERGIES IN A.U. +++
 ::: EXT EL-POLE : L =  0                         -1.1656849558331E+02
 ::: EXT EL-POLE : L =  1                          6.7906231296947E-05
 ::: EXT EL-POLE : L =  2                         -1.6672308794620E-04
 ::: EXT EL-POLE : L =  3                          2.9124167895854E-04
 ::: EXT EL-POLE : L =  4                          1.2611881887444E-05
 ::: EXT EL-SPHEROPOLE                             0.0000000000000E+00
 ::: BIELET ZONE E-E                               1.1691807432513E+02
 ::: TOTAL E-E                                     3.4978377852829E-01
 ::: TOTAL E-N + N-E                              -2.4168454344823E+02
 ::: TOTAL N-N                                    -5.7926027672017E+01
 ::: KINETIC ENERGY                                1.4931505838161E+02
 ::: TOTAL   ENERGY                               -1.4994572896011E+02
 ::: VIRIAL COEFFICIENT                            9.9789257194668E-01
 TTTTTTTTTTTTTTTTTTTTTTTTTTTTTT TOTENY      TELAPSE        0.45 TCPU        0.17
 CYC  11 ETOT(AU) -1.499457289601E+02 DETOT -2.50E-08 tst  9.77E-10 PX  1.68E-04

 == SCF ENDED - CONVERGENCE ON ENERGY      E(AU) -1.4994572896011E+02 CYCLES  11

 TOTAL ENERGY(HF)(AU)(  11) -1.4994572896011E+02 DE-2.5E-08 tst 9.8E-10 PX 1.7E-04

 *******************************************************************************
 *                             FORCE CALCULATION                               *
 *******************************************************************************

 INFORMATION **** EXCPOG **** EXCH. BIPO BUFFER LENGTH (WORDS) =     19800
 INFORMATION **** GENPOG **** BIPO BUFFER LENGTH (WORDS) =      6600
 TTTTTTTTTTTTTTTTTTTTTTTTTTTTTT SHELXG      TELAPSE        0.96 TCPU        0.68

 CARTESIAN FORCES (ANALYTICAL)
   ATOM                     X                   Y                   Z
   1   8            -6.315450012320E-02 -4.222287320584E-02  3.050629328106E-02
   2   1             1.863325006201E-02  4.816556450582E-02 -2.588517290780E-02
   3   1             4.452124322248E-02 -1.624442424374E-02 -3.612973563466E-03
   4   8            -6.315405896115E-02  4.222335633077E-02 -3.050633492581E-02
   5   1             1.863337555663E-02 -4.816550884785E-02  2.588520566131E-02
   6   1             4.452069024321E-02  1.624388546084E-02  3.612982454705E-03

 RESULTANT FORCE    -2.164934898019E-15  2.331468351713E-15  1.082467449010E-15

ATOMIC PART

 SYMMETRY ALLOWED FORCES (ANALYTICAL) (DIRECTION, FORCE)

    1 -6.9182289E-02    2 -4.6252840E-02    3  3.5110869E-02    4  6.7108314E-03
    5  4.7361949E-02    6 -1.0537407E-02    7  3.8556526E-02    8 -1.6849259E-02
    9 -2.4798011E-03   10 -7.7347613E-02   11  4.8079188E-02   12 -3.6235133E-02
   13 -1.8305096E-02   14 -4.8163262E-02

CELL PART

 SYMMETRY ALLOWED FORCES (ANALYTICAL) (DIRECTION, FORCE)

    1  1.3918519E-02
 TTTTTTTTTTTTTTTTTTTTTTTTTTTTTT TOTGRA      TELAPSE        1.00 TCPU        0.72
 INFORMATION **** optc001 **** GEOMETRY OUTPUT FILE
 CLASSICAL MODEL (SCHLEGEL) USED AS INITIAL HESSIAN MATRIX
 REFERENCE GEOMETRY DEFINED

 MAX GRADIENT      0.077348  THRESHOLD              0.000450 CONVERGED NO
 RMS GRADIENT      0.040653  THRESHOLD              0.000300 CONVERGED NO

 GRADIENT NORM     0.157448  GRADIENT THRESHOLD     0.500000

 PREDICTED ENERGY CHANGE    -0.925E-04

 INITIAL DISPLACEMENTS
 -0.000311 -0.000215  0.000478  0.000169 -0.000155 -0.000002  0.000064 -0.000428
  0.000327 -0.000349  0.000030 -0.000324  0.000091 -0.000173 -0.000361
 TTTTTTTTTTTTTTTTTTTTTTTTTTTTTT OPTI        TELAPSE        1.01 TCPU        0.73

 OPTOPTOPTOPTOPTOPTOPTOPTOPTOPTOPTOPTOPTOPTOPTOPTOPTOPTOPTOPTOPTOPTOPTOPTOPTOPT

 STARTING GEOMETRY OPTIMIZATION - INFORMATION ON SCF MOVED TO SCFOUT.LOG
 GEOMETRY OPTIMIZATION INFORMATION STORED IN OPTINFO.DAT

 OPTOPTOPTOPTOPTOPTOPTOPTOPTOPTOPTOPTOPTOPTOPTOPTOPTOPTOPTOPTOPTOPTOPTOPTOPTOPT
 *******************************************************************************
 COORDINATE AND CELL OPTIMIZATION - POINT    2
 *******************************************************************************
 LATTICE PARAMETERS (ANGSTROMS AND DEGREES) - BOHR = 0.5291772083 ANGSTROM
 PRIMITIVE CELL
         A              B              C           ALPHA      BETA       GAMMA 
     4.96531569   500.00000000   500.00000000    90.000000  90.000000  90.000000
 *******************************************************************************
 ATOMS IN THE ASYMMETRIC UNIT    6 - ATOMS IN THE UNIT CELL:    6
     ATOM              X/A             Y(ANGSTROM)         Z(ANGSTROM)
 *******************************************************************************
   1 T   8 O    -3.024045691096E-05 -1.037016311533E-04  2.199645956793E-04
   2 T   1 H     3.258011396153E-02  8.360232472083E-01 -4.004634789254E-01
   3 T   1 H     1.682029808260E-01 -4.612066529270E-01  6.958318293125E-05
   4 T   8 O     4.999696803878E-01 -1.370485630366E+00 -2.216813273162E-04
   5 T   1 H    -4.674198751432E-01 -2.206607753957E+00  4.004716579039E-01
   6 T   1 H    -3.317966595752E-01 -9.093855083272E-01 -7.604542978293E-05

 T = ATOM BELONGING TO THE ASYMMETRIC UNIT

 TOTAL ENERGY(HF)(AU)(   3) -1.4994582144547E+02     DE (AU)   -9.249E-05

 SYMMETRY ALLOWED FORCES  (COORDINATE, FORCE)

    1 -6.8867733E-02    2 -4.5996932E-02    3  3.4936880E-02    4  6.6749442E-03
    5  4.7065563E-02    6 -1.0469659E-02    7  3.8385421E-02    8 -1.6786987E-02
    9 -2.4708596E-03   10 -7.6994814E-02   11  4.7791567E-02   12 -3.6053429E-02
   13 -1.8228750E-02   14 -4.7887147E-02   15  1.3814879E-02

 GRADIENT NORM     0.156647  GRADIENT THRESHOLD     0.500000

 PREDICTED ENERGY CHANGE    -0.121E-01

 MAX GRADIENT      0.076995  THRESHOLD              0.000450 CONVERGED NO
 RMS GRADIENT      0.040446  THRESHOLD              0.000300 CONVERGED NO
 MAX DISPLAC.      0.246619  THRESHOLD              0.001800 CONVERGED NO
 RMS DISPLAC.      0.133902  THRESHOLD              0.001200 CONVERGED NO
 TTTTTTTTTTTTTTTTTTTTTTTTTTTTTT OPTI        TELAPSE        1.78 TCPU        1.36
 *******************************************************************************
 COORDINATE AND CELL OPTIMIZATION - POINT    3
 *******************************************************************************
 LATTICE PARAMETERS (ANGSTROMS AND DEGREES) - BOHR = 0.5291772083 ANGSTROM
 PRIMITIVE CELL
         A              B              C           ALPHA      BETA       GAMMA 
     4.74696683   500.00000000   500.00000000    90.000000  90.000000  90.000000
 *******************************************************************************
 ATOMS IN THE ASYMMETRIC UNIT    6 - ATOMS IN THE UNIT CELL:    6
     ATOM              X/A             Y(ANGSTROM)         Z(ANGSTROM)
 *******************************************************************************
   1 T   8 O    -1.017793794493E-02 -4.495761281944E-02  1.036853205604E-01
   2 T   1 H     4.021974143159E-02  7.556539555546E-01 -4.297764979979E-01
   3 T   1 H     1.706368411870E-01 -5.271328512882E-01  2.785693772207E-02
   4 T   8 O     4.897972956651E-01 -1.324020645023E+00 -1.023552010529E-01
   5 T   1 H    -4.600204332501E-01 -2.125585585881E+00  4.296666776281E-01
   6 T   1 H    -3.289495070886E-01 -8.457232605424E-01 -2.907723685967E-02

 T = ATOM BELONGING TO THE ASYMMETRIC UNIT

 TOTAL ENERGY(HF)(AU)(  14) -1.4995891755251E+02     DE (AU)   -1.310E-02

 SYMMETRY ALLOWED FORCES  (COORDINATE, FORCE)

    1  4.6986849E-03    2  8.6116250E-03    3 -1.0139330E-02    4 -1.0859626E-02
    5 -1.8805005E-03    6 -7.3473020E-04    7  5.4677418E-03    8 -1.4767423E-02
    9  3.3380245E-03   10  5.1190286E-03   11 -1.3812327E-02   12  1.0422829E-02
   13 -1.2069314E-02   14 -8.5016538E-03   15 -8.6861253E-03

 GRADIENT NORM     0.034629  GRADIENT THRESHOLD     0.500000

 PREDICTED ENERGY CHANGE    -0.290E-02

 MAX GRADIENT      0.014767  THRESHOLD              0.000450 CONVERGED NO
 RMS GRADIENT      0.008941  THRESHOLD              0.000300 CONVERGED NO
 MAX DISPLAC.      0.220261  THRESHOLD              0.001800 CONVERGED NO
 RMS DISPLAC.      0.073886  THRESHOLD              0.001200 CONVERGED NO
 TTTTTTTTTTTTTTTTTTTTTTTTTTTTTT OPTI        TELAPSE        2.57 TCPU        2.03
 *******************************************************************************
 COORDINATE AND CELL OPTIMIZATION - POINT    4
 *******************************************************************************
 LATTICE PARAMETERS (ANGSTROMS AND DEGREES) - BOHR = 0.5291772083 ANGSTROM
 PRIMITIVE CELL
         A              B              C           ALPHA      BETA       GAMMA 
     4.56053052   500.00000000   500.00000000    90.000000  90.000000  90.000000
 *******************************************************************************
 ATOMS IN THE ASYMMETRIC UNIT    6 - ATOMS IN THE UNIT CELL:    6
     ATOM              X/A             Y(ANGSTROM)         Z(ANGSTROM)
 *******************************************************************************
   1 T   8 O    -1.118470205874E-02 -6.807582636803E-02  8.329419930205E-02
   2 T   1 H     3.380966176846E-02  7.605519644790E-01 -4.203911900458E-01
   3 T   1 H     1.780611477356E-01 -5.615352689861E-01  2.270892760412E-02
   4 T   8 O     4.888058693024E-01 -1.301004677123E+00 -8.220248275562E-02
   5 T   1 H    -4.665667255152E-01 -2.130141087177E+00  4.219739355572E-01
   6 T   1 H    -3.214192512326E-01 -8.115611048253E-01 -2.538338966195E-02

 T = ATOM BELONGING TO THE ASYMMETRIC UNIT

 TOTAL ENERGY(HF)(AU)(  11) -1.4996337413743E+02     DE (AU)   -4.457E-03

 SYMMETRY ALLOWED FORCES  (COORDINATE, FORCE)

    1  1.1053615E-03    2  6.5471777E-03    3 -5.1057188E-03    4 -5.0550293E-03
    5 -8.6570048E-03    6  1.3372891E-03    7  3.2769848E-03    8 -6.4958083E-03
    9  1.6133268E-03   10  1.3270449E-03   11 -1.1571807E-02   12  5.8037555E-03
   13 -6.0044216E-03   14  2.7803855E-03   15 -7.3301618E-03

 GRADIENT NORM     0.022245  GRADIENT THRESHOLD     0.500000

 PREDICTED ENERGY CHANGE    -0.389E-02
 SCSCSCSCSCSCSCSCSCSCSCSCSCSCSCSCSCSCSCSCSCSCSCSCSCSCSCSCSCSCSCSCSCSCSCSCSCSCSC
 DISPLACEMENT SCALED BY  0.8852
 NO CONVERGENCE TESTS PERFORMED
           GRADIENT INFORMATIONS AT   --    PREDICTED POINT WRT CURR.POINT
   I  PREV.GRAD   CURR.GRAD   PRED.POINT  OLD.DISP NEW.DISP
    1   -0.0047     -0.0011      0.0030     -0.0580     -0.0513
    2   -0.0086     -0.0065     -0.0042     -0.1368     -0.1211
    3    0.0101      0.0051     -0.0006      0.0542      0.0480
    4    0.0109      0.0051     -0.0015     -0.1111     -0.0984
    5    0.0019      0.0087      0.0163     -0.1590     -0.1407
    6    0.0007     -0.0013     -0.0037      0.0082      0.0073
    7   -0.0055     -0.0033     -0.0008      0.1226      0.1085
    8    0.0148      0.0065     -0.0029     -0.2579     -0.2283
    9   -0.0033     -0.0016      0.0003      0.0386      0.0342
   10   -0.0051     -0.0013      0.0030     -0.0643     -0.0569
   11    0.0138      0.0116      0.0090     -0.0112     -0.0099
   12   -0.0104     -0.0058     -0.0006     -0.0232     -0.0206
   13    0.0121      0.0060     -0.0009     -0.1643     -0.1454
   14    0.0085     -0.0028     -0.0156     -0.0356     -0.0315
   15    0.0087      0.0073      0.0058     -0.5648     -0.5000
 TTTTTTTTTTTTTTTTTTTTTTTTTTTTTT OPTI        TELAPSE        3.35 TCPU        2.69
 *******************************************************************************
 COORDINATE AND CELL OPTIMIZATION - POINT    5
 *******************************************************************************
 LATTICE PARAMETERS (ANGSTROMS AND DEGREES) - BOHR = 0.5291772083 ANGSTROM
 PRIMITIVE CELL
         A              B              C           ALPHA      BETA       GAMMA 
     4.15393510   500.00000000   500.00000000    90.000000  90.000000  90.000000
 *******************************************************************************
 ATOMS IN THE ASYMMETRIC UNIT    6 - ATOMS IN THE UNIT CELL:    6
     ATOM              X/A             Y(ANGSTROM)         Z(ANGSTROM)
 *******************************************************************************
   1 T   8 O    -1.617577046675E-02 -1.265559742519E-01  1.053678310856E-01
   2 T   1 H     2.543130502725E-02  7.055379643599E-01 -4.179590712081E-01
   3 T   1 H     1.914159291508E-01 -6.373381863439E-01  3.470407641081E-02
   4 T   8 O     4.838569761170E-01 -1.242640641807E+00 -1.035181986153E-01
   5 T   1 H    -4.750416323741E-01 -2.075694229992E+00  4.186622431189E-01
   6 T   1 H    -3.079808074542E-01 -7.350749319652E-01 -3.725688079192E-02

 T = ATOM BELONGING TO THE ASYMMETRIC UNIT

 TOTAL ENERGY(HF)(AU)(  12) -1.4996510977790E+02     DE (AU)   -1.736E-03

 SYMMETRY ALLOWED FORCES  (COORDINATE, FORCE)

    1 -8.5619165E-03    2  4.1199560E-02    3 -8.6328130E-03    4 -8.3136869E-03
    5 -1.4786561E-02    6  6.1541629E-03    7  1.2049990E-02    8 -5.4413096E-03
    9  1.0705124E-03   10 -9.7536571E-03   11 -4.3450334E-02   12  8.0050962E-03
   13 -1.3565606E-02   14  8.9787056E-03   15  1.8482395E-02

 GRADIENT NORM     0.070712  GRADIENT THRESHOLD     0.500000

 PREDICTED ENERGY CHANGE    -0.231E-02

 MAX GRADIENT      0.043450  THRESHOLD              0.000450 CONVERGED NO
 RMS GRADIENT      0.018258  THRESHOLD              0.000300 CONVERGED NO
 MAX DISPLAC.      0.167115  THRESHOLD              0.001800 CONVERGED NO
 RMS DISPLAC.      0.051863  THRESHOLD              0.001200 CONVERGED NO
 TTTTTTTTTTTTTTTTTTTTTTTTTTTTTT OPTI        TELAPSE        4.13 TCPU        3.35
 *******************************************************************************
 COORDINATE AND CELL OPTIMIZATION - POINT    6
 *******************************************************************************
 LATTICE PARAMETERS (ANGSTROMS AND DEGREES) - BOHR = 0.5291772083 ANGSTROM
 PRIMITIVE CELL
         A              B              C           ALPHA      BETA       GAMMA 
     4.27771548   500.00000000   500.00000000    90.000000  90.000000  90.000000
 *******************************************************************************
 ATOMS IN THE ASYMMETRIC UNIT    6 - ATOMS IN THE UNIT CELL:    6
     ATOM              X/A             Y(ANGSTROM)         Z(ANGSTROM)
 *******************************************************************************
   1 T   8 O    -1.414525198305E-02 -9.756235018032E-02  1.113398937836E-01
   2 T   1 H     2.536780327464E-02  7.148482675627E-01 -4.229924711108E-01
   3 T   1 H     1.894879483909E-01 -6.144798849878E-01  3.555190895910E-02
   4 T   8 O     4.858430754565E-01 -1.272451661147E+00 -1.109090172122E-01
   5 T   1 H    -4.749490673552E-01 -2.084486988603E+00  4.245838779329E-01
   6 T   1 H    -3.100985077838E-01 -7.576333826447E-01 -3.757419235262E-02

 T = ATOM BELONGING TO THE ASYMMETRIC UNIT

 TOTAL ENERGY(HF)(AU)(  11) -1.4996724181450E+02     DE (AU)   -2.132E-03

 SYMMETRY ALLOWED FORCES  (COORDINATE, FORCE)

    1  2.2678552E-03    2  6.4342633E-03    3 -1.9109697E-03    4 -3.0577525E-03
    5 -6.6332729E-03    6  1.3891227E-03    7  1.0170991E-03    8 -1.0193698E-03
    9  1.5197580E-03   10  2.8608648E-03   11 -8.2258873E-03   12  2.4768300E-03
   13 -2.7267081E-03   14  4.5133969E-03   15 -2.6241643E-03

 GRADIENT NORM     0.015051  GRADIENT THRESHOLD     0.500000

 PREDICTED ENERGY CHANGE    -0.440E-03

 MAX GRADIENT      0.008226  THRESHOLD              0.000450 CONVERGED NO
 RMS GRADIENT      0.003886  THRESHOLD              0.000300 CONVERGED NO
 MAX DISPLAC.      0.093767  THRESHOLD              0.001800 CONVERGED NO
 RMS DISPLAC.      0.039088  THRESHOLD              0.001200 CONVERGED NO
 TTTTTTTTTTTTTTTTTTTTTTTTTTTTTT OPTI        TELAPSE        4.99 TCPU        4.06
 *******************************************************************************
 COORDINATE AND CELL OPTIMIZATION - POINT    7
 *******************************************************************************
 LATTICE PARAMETERS (ANGSTROMS AND DEGREES) - BOHR = 0.5291772083 ANGSTROM
 PRIMITIVE CELL
         A              B              C           ALPHA      BETA       GAMMA 
     4.20619368   500.00000000   500.00000000    90.000000  90.000000  90.000000
 *******************************************************************************
 ATOMS IN THE ASYMMETRIC UNIT    6 - ATOMS IN THE UNIT CELL:    6
     ATOM              X/A             Y(ANGSTROM)         Z(ANGSTROM)
 *******************************************************************************
   1 T   8 O    -1.442769438867E-02 -9.570753166508E-02  1.349394631703E-01
   2 T   1 H     2.132374966301E-02  6.977473937568E-01 -4.306052373921E-01
   3 T   1 H     1.938671280313E-01 -6.203368868956E-01  4.776601974448E-02
   4 T   8 O     4.855681128618E-01 -1.275924913689E+00 -1.362919467594E-01
   5 T   1 H    -4.787492930478E-01 -2.067171911381E+00  4.335089501164E-01
   6 T   1 H    -3.060760031197E-01 -7.503721501255E-01 -4.931724887973E-02

 T = ATOM BELONGING TO THE ASYMMETRIC UNIT

 TOTAL ENERGY(HF)(AU)(  11) -1.4996795524134E+02     DE (AU)   -7.134E-04

 SYMMETRY ALLOWED FORCES  (COORDINATE, FORCE)

    1  3.4122273E-03    2  4.9138957E-03    3 -1.8640297E-03    4 -2.1805601E-03
    5 -5.4533887E-03    6  1.3540244E-03    7 -4.4093496E-04    8  3.2161933E-04
    9 -5.3541479E-05   10  4.4004291E-03   11 -5.9803014E-03   12  2.6899215E-03
   13 -1.2142258E-03   14  5.3504582E-03   15 -3.0163395E-03

 GRADIENT NORM     0.013321  GRADIENT THRESHOLD     0.500000

 PREDICTED ENERGY CHANGE    -0.572E-03

 MAX GRADIENT      0.005980  THRESHOLD              0.000450 CONVERGED NO
 RMS GRADIENT      0.003440  THRESHOLD              0.000300 CONVERGED NO
 MAX DISPLAC.      0.181879  THRESHOLD              0.001800 CONVERGED NO
 RMS DISPLAC.      0.071408  THRESHOLD              0.001200 CONVERGED NO
 TTTTTTTTTTTTTTTTTTTTTTTTTTTTTT OPTI        TELAPSE        5.85 TCPU        4.76
 *******************************************************************************
 COORDINATE AND CELL OPTIMIZATION - POINT    8
 *******************************************************************************
 LATTICE PARAMETERS (ANGSTROMS AND DEGREES) - BOHR = 0.5291772083 ANGSTROM
 PRIMITIVE CELL
         A              B              C           ALPHA      BETA       GAMMA 
     4.06978308   500.00000000   500.00000000    90.000000  90.000000  90.000000
 *******************************************************************************
 ATOMS IN THE ASYMMETRIC UNIT    6 - ATOMS IN THE UNIT CELL:    6
     ATOM              X/A             Y(ANGSTROM)         Z(ANGSTROM)
 *******************************************************************************
   1 T   8 O    -1.434147338351E-02 -8.653027818544E-02  1.768571155718E-01
   2 T   1 H     1.314496574107E-02  6.680993241142E-01 -4.515746592924E-01
   3 T   1 H     2.022495329557E-01 -6.233149881650E-01  6.864112054830E-02
   4 T   8 O     4.856192690797E-01 -1.283685267859E+00 -1.729521803072E-01
   5 T   1 H    -4.867587962713E-01 -2.044058165021E+00  4.386439864906E-01
   6 T   1 H    -2.984074981217E-01 -7.422766248833E-01 -5.961538301109E-02

 T = ATOM BELONGING TO THE ASYMMETRIC UNIT

 TOTAL ENERGY(HF)(AU)(  13) -1.4996848699337E+02     DE (AU)   -5.318E-04

 SYMMETRY ALLOWED FORCES  (COORDINATE, FORCE)

    1  1.9613681E-03    2  1.0088200E-02    3 -5.9877147E-03    4 -1.4074465E-03
    5 -6.1338123E-03    6  4.0050004E-03    7 -3.5971939E-04    8  7.8127824E-04
    9 -3.2805493E-03   10  1.5627593E-03   11 -1.3442143E-03   12 -7.4122817E-04
   13 -1.9903084E-04   14  3.1312364E-03   15  3.3123249E-04

 GRADIENT NORM     0.014946  GRADIENT THRESHOLD     0.500000

 PREDICTED ENERGY CHANGE    -0.234E-03

 MAX GRADIENT      0.010088  THRESHOLD              0.000450 CONVERGED NO
 RMS GRADIENT      0.003859  THRESHOLD              0.000300 CONVERGED NO
 MAX DISPLAC.      0.100803  THRESHOLD              0.001800 CONVERGED NO
 RMS DISPLAC.      0.032109  THRESHOLD              0.001200 CONVERGED NO
 TTTTTTTTTTTTTTTTTTTTTTTTTTTTTT OPTI        TELAPSE        6.64 TCPU        5.42
 *******************************************************************************
 COORDINATE AND CELL OPTIMIZATION - POINT    9
 *******************************************************************************
 LATTICE PARAMETERS (ANGSTROMS AND DEGREES) - BOHR = 0.5291772083 ANGSTROM
 PRIMITIVE CELL
         A              B              C           ALPHA      BETA       GAMMA 
     4.04877388   500.00000000   500.00000000    90.000000  90.000000  90.000000
 *******************************************************************************
 ATOMS IN THE ASYMMETRIC UNIT    6 - ATOMS IN THE UNIT CELL:    6
     ATOM              X/A             Y(ANGSTROM)         Z(ANGSTROM)
 *******************************************************************************
   1 T   8 O    -1.382239583196E-02 -8.872151387880E-02  1.620943685061E-01
   2 T   1 H     1.075893256625E-02  6.802784066716E-01 -4.187284797327E-01
   3 T   1 H     2.041783720567E-01 -6.277888790689E-01  4.568133425802E-02
   4 T   8 O     4.860770365689E-01 -1.294820888788E+00 -1.883234738764E-01
   5 T   1 H    -4.888372658673E-01 -2.030016775182E+00  4.694456340895E-01
   6 T   1 H    -2.968486794926E-01 -7.506963497538E-01 -7.016938324454E-02

 T = ATOM BELONGING TO THE ASYMMETRIC UNIT

 TOTAL ENERGY(HF)(AU)(  12) -1.4996829046927E+02     DE (AU)    1.965E-04

 SYMMETRY ALLOWED FORCES  (COORDINATE, FORCE)

    1 -7.8522363E-04    2 -1.2994436E-02    3  1.3618542E-02    4  1.4228560E-03
    5  1.1089646E-02    6 -5.5558419E-03    7 -1.0962688E-03    8  2.4665478E-03
    9 -5.9071996E-03   10  2.8382708E-03   11 -1.3232291E-02   12  1.0202975E-02
   13 -1.4469488E-03   14  8.0105638E-03   15  3.9705115E-04

 GRADIENT NORM     0.030111  GRADIENT THRESHOLD     0.500000

 PREDICTED ENERGY CHANGE    -0.462E-03

 MAX GRADIENT      0.013619  THRESHOLD              0.000450 CONVERGED NO
 RMS GRADIENT      0.007775  THRESHOLD              0.000300 CONVERGED NO
 MAX DISPLAC.      0.078654  THRESHOLD              0.001800 CONVERGED NO
 RMS DISPLAC.      0.030687  THRESHOLD              0.001200 CONVERGED NO
 TTTTTTTTTTTTTTTTTTTTTTTTTTTTTT OPTI        TELAPSE        7.46 TCPU        6.12
 *******************************************************************************
 COORDINATE AND CELL OPTIMIZATION - POINT   10
 *******************************************************************************
 LATTICE PARAMETERS (ANGSTROMS AND DEGREES) - BOHR = 0.5291772083 ANGSTROM
 PRIMITIVE CELL
         A              B              C           ALPHA      BETA       GAMMA 
     4.07531007   500.00000000   500.00000000    90.000000  90.000000  90.000000
 *******************************************************************************
 ATOMS IN THE ASYMMETRIC UNIT    6 - ATOMS IN THE UNIT CELL:    6
     ATOM              X/A             Y(ANGSTROM)         Z(ANGSTROM)
 *******************************************************************************
   1 T   8 O    -1.335496040336E-02 -8.031376620949E-02  1.637252975187E-01
   2 T   1 H     1.140944059708E-02  6.782400101263E-01 -4.411977453515E-01
   3 T   1 H     2.026544000404E-01 -6.201548836540E-01  4.635060747775E-02
   4 T   8 O     4.868094790196E-01 -1.290233875010E+00 -1.634712185307E-01
   5 T   1 H    -4.883509552618E-01 -2.049785081181E+00  4.372217173348E-01
   6 T   1 H    -2.976614039919E-01 -7.495184040712E-01 -4.262865844904E-02

 T = ATOM BELONGING TO THE ASYMMETRIC UNIT

 TOTAL ENERGY(HF)(AU)(  11) -1.4996860753486E+02     DE (AU)   -3.171E-04

 SYMMETRY ALLOWED FORCES  (COORDINATE, FORCE)

    1  1.7747610E-03    2 -7.1167768E-03    3  6.9832419E-03    4  3.2409938E-04
    5  4.7976953E-03    6 -6.1148159E-04    7 -1.2680908E-03    8  1.5053590E-03
    9  8.1317768E-04   10  9.3078074E-04   11  1.0671950E-02   12 -7.6666871E-03
   13  7.2908950E-04   14 -4.7180261E-03   15 -1.4574311E-03

 GRADIENT NORM     0.018140  GRADIENT THRESHOLD     0.500000

 PREDICTED ENERGY CHANGE    -0.245E-03

 MAX GRADIENT      0.010672  THRESHOLD              0.000450 CONVERGED NO
 RMS GRADIENT      0.004684  THRESHOLD              0.000300 CONVERGED NO
 MAX DISPLAC.      0.054011  THRESHOLD              0.001800 CONVERGED NO
 RMS DISPLAC.      0.020836  THRESHOLD              0.001200 CONVERGED NO
 TTTTTTTTTTTTTTTTTTTTTTTTTTTTTT OPTI        TELAPSE        8.25 TCPU        6.78
 *******************************************************************************
 COORDINATE AND CELL OPTIMIZATION - POINT   11
 *******************************************************************************
 LATTICE PARAMETERS (ANGSTROMS AND DEGREES) - BOHR = 0.5291772083 ANGSTROM
 PRIMITIVE CELL
         A              B              C           ALPHA      BETA       GAMMA 
     4.05821542   500.00000000   500.00000000    90.000000  90.000000  90.000000
 *******************************************************************************
 ATOMS IN THE ASYMMETRIC UNIT    6 - ATOMS IN THE UNIT CELL:    6
     ATOM              X/A             Y(ANGSTROM)         Z(ANGSTROM)
 *******************************************************************************
   1 T   8 O    -1.272432900366E-02 -6.968192938342E-02  1.885585968277E-01
   2 T   1 H     1.040919988659E-02  6.750372147611E-01 -4.582870788237E-01
   3 T   1 H     2.032689517723E-01 -6.131404851667E-01  5.428203039960E-02
   4 T   8 O     4.872963952485E-01 -1.297549897020E+00 -1.814008441653E-01
   5 T   1 H    -4.897613705231E-01 -2.052561337970E+00  4.406200269447E-01
   6 T   1 H    -2.969828473807E-01 -7.538695652210E-01 -4.377273118313E-02

 T = ATOM BELONGING TO THE ASYMMETRIC UNIT

 TOTAL ENERGY(HF)(AU)(  11) -1.4996865603468E+02     DE (AU)   -4.850E-05

 SYMMETRY ALLOWED FORCES  (COORDINATE, FORCE)

    1  4.1232762E-03    2  7.2008334E-03    3 -1.0068191E-02    4 -1.0790050E-03
    5 -8.7149391E-03    6  3.7653818E-03    7 -1.8258803E-03    8  7.6650756E-04
    9 -1.2449881E-03   10  3.0541662E-03   11  1.2099844E-03   12  1.1443558E-03
   13  8.9681433E-04   14  2.7050501E-03   15 -2.5855716E-03

 GRADIENT NORM     0.017143  GRADIENT THRESHOLD     0.500000

 PREDICTED ENERGY CHANGE    -0.148E-03

 MAX GRADIENT      0.010068  THRESHOLD              0.000450 CONVERGED NO
 RMS GRADIENT      0.004426  THRESHOLD              0.000300 CONVERGED NO
 MAX DISPLAC.      0.029174  THRESHOLD              0.001800 CONVERGED NO
 RMS DISPLAC.      0.011739  THRESHOLD              0.001200 CONVERGED NO
 TTTTTTTTTTTTTTTTTTTTTTTTTTTTTT OPTI        TELAPSE        9.07 TCPU        7.48
 *******************************************************************************
 COORDINATE AND CELL OPTIMIZATION - POINT   12
 *******************************************************************************
 LATTICE PARAMETERS (ANGSTROMS AND DEGREES) - BOHR = 0.5291772083 ANGSTROM
 PRIMITIVE CELL
         A              B              C           ALPHA      BETA       GAMMA 
     4.05077984   500.00000000   500.00000000    90.000000  90.000000  90.000000
 *******************************************************************************
 ATOMS IN THE ASYMMETRIC UNIT    6 - ATOMS IN THE UNIT CELL:    6
     ATOM              X/A             Y(ANGSTROM)         Z(ANGSTROM)
 *******************************************************************************
   1 T   8 O    -1.259721732029E-02 -7.504103510295E-02  1.770450727715E-01
   2 T   1 H     9.576952351709E-03  6.786742730457E-01 -4.453106460917E-01
   3 T   1 H     2.039533439007E-01 -6.159399649904E-01  4.459669037484E-02
   4 T   8 O     4.874266359426E-01 -1.296175025973E+00 -1.782778459570E-01
   5 T   1 H    -4.905243344978E-01 -2.048757344047E+00  4.454996609284E-01
   6 T   1 H    -2.963293803769E-01 -7.545269029325E-01 -4.355293202601E-02

 T = ATOM BELONGING TO THE ASYMMETRIC UNIT

 TOTAL ENERGY(HF)(AU)(   9) -1.4996881085454E+02     DE (AU)   -1.548E-04

 SYMMETRY ALLOWED FORCES  (COORDINATE, FORCE)

    1  1.5631037E-03    2 -2.8529188E-05    3  2.7512259E-04    4 -2.7565789E-04
    5 -8.0397062E-04    6  4.5126026E-04    7 -8.3166996E-04    8  8.3428192E-04
    9 -9.4854049E-04   10  1.4421779E-03   11  1.4782034E-04   12  4.5492238E-05
   13  3.8359009E-05   14  1.0939284E-03   15 -6.0298791E-04

 GRADIENT NORM     0.003066  GRADIENT THRESHOLD     0.500000

 PREDICTED ENERGY CHANGE    -0.202E-04

 MAX GRADIENT      0.001563  THRESHOLD              0.000450 CONVERGED NO
 RMS GRADIENT      0.000792  THRESHOLD              0.000300 CONVERGED NO
 MAX DISPLAC.      0.015490  THRESHOLD              0.001800 CONVERGED NO
 RMS DISPLAC.      0.007715  THRESHOLD              0.001200 CONVERGED NO
 TTTTTTTTTTTTTTTTTTTTTTTTTTTTTT OPTI        TELAPSE        9.89 TCPU        8.14
 *******************************************************************************
 COORDINATE AND CELL OPTIMIZATION - POINT   13
 *******************************************************************************
 LATTICE PARAMETERS (ANGSTROMS AND DEGREES) - BOHR = 0.5291772083 ANGSTROM
 PRIMITIVE CELL
         A              B              C           ALPHA      BETA       GAMMA 
     4.04170250   500.00000000   500.00000000    90.000000  90.000000  90.000000
 *******************************************************************************
 ATOMS IN THE ASYMMETRIC UNIT    6 - ATOMS IN THE UNIT CELL:    6
     ATOM              X/A             Y(ANGSTROM)         Z(ANGSTROM)
 *******************************************************************************
   1 T   8 O    -1.209187593300E-02 -7.292697400598E-02  1.796813153917E-01
   2 T   1 H     8.236356679279E-03  6.778650564876E-01 -4.458774252917E-01
   3 T   1 H     2.047730812195E-01 -6.139928107397E-01  4.045615481434E-02
   4 T   8 O     4.879365772130E-01 -1.297766393290E+00 -1.804935518548E-01
   5 T   1 H    -4.919388199037E-01 -2.048495104550E+00  4.456106554619E-01
   6 T   1 H    -2.954093192751E-01 -7.564497739022E-01 -3.937714852151E-02

 T = ATOM BELONGING TO THE ASYMMETRIC UNIT

 TOTAL ENERGY(HF)(AU)(   7) -1.4996884141104E+02     DE (AU)   -3.056E-05

 SYMMETRY ALLOWED FORCES  (COORDINATE, FORCE)

    1  1.2154418E-03    2 -1.0605015E-03    3  7.8763910E-04    4 -1.3232947E-04
    5  1.3150594E-04    6  7.7085102E-05    7 -6.9594178E-04    8  6.3296373E-04
    9 -4.9524395E-04   10  1.0435572E-03   11  8.4527660E-04   12 -3.1902259E-04
   13  1.1612830E-04   14  3.7459459E-04   15 -3.8891627E-04

 GRADIENT NORM     0.002570  GRADIENT THRESHOLD     0.500000

 PREDICTED ENERGY CHANGE    -0.214E-04

 MAX GRADIENT      0.001215  THRESHOLD              0.000450 CONVERGED NO
 RMS GRADIENT      0.000664  THRESHOLD              0.000300 CONVERGED NO
 MAX DISPLAC.      0.019717  THRESHOLD              0.001800 CONVERGED NO
 RMS DISPLAC.      0.010172  THRESHOLD              0.001200 CONVERGED NO
 TTTTTTTTTTTTTTTTTTTTTTTTTTTTTT OPTI        TELAPSE       10.66 TCPU        8.79
 *******************************************************************************
 COORDINATE AND CELL OPTIMIZATION - POINT   14
 *******************************************************************************
 LATTICE PARAMETERS (ANGSTROMS AND DEGREES) - BOHR = 0.5291772083 ANGSTROM
 PRIMITIVE CELL
         A              B              C           ALPHA      BETA       GAMMA 
     4.03674120   500.00000000   500.00000000    90.000000  90.000000  90.000000
 *******************************************************************************
 ATOMS IN THE ASYMMETRIC UNIT    6 - ATOMS IN THE UNIT CELL:    6
     ATOM              X/A             Y(ANGSTROM)         Z(ANGSTROM)
 *******************************************************************************
   1 T   8 O    -1.113481508227E-02 -7.103366804433E-02  1.828085774569E-01
   2 T   1 H     6.320889353730E-03  6.780747903243E-01 -4.461953290657E-01
   3 T   1 H     2.056186943757E-01 -6.099655837363E-01  3.335251321280E-02
   4 T   8 O     4.888950197578E-01 -1.299212696681E+00 -1.831625627180E-01
   5 T   1 H    -4.938474179375E-01 -2.048919639936E+00  4.460639868762E-01
   6 T   1 H    -2.943463704675E-01 -7.607092019264E-01 -3.286718576216E-02

 T = ATOM BELONGING TO THE ASYMMETRIC UNIT

 TOTAL ENERGY(HF)(AU)(   8) -1.4996886821322E+02     DE (AU)   -2.680E-05

 SYMMETRY ALLOWED FORCES  (COORDINATE, FORCE)

    1  5.1470479E-04    2 -8.5839767E-04    3  5.0114230E-04    4 -6.1179673E-05
    5  2.0132419E-04    6 -1.8089721E-04    7 -2.3500201E-04    8  1.8726196E-04
    9  2.9232939E-05   10  4.4516260E-04   11  1.0064635E-04   12  1.8332319E-04
   13  6.7354707E-05   14  2.2978326E-04   15 -1.2831802E-05

 GRADIENT NORM     0.001312  GRADIENT THRESHOLD     0.500000

 PREDICTED ENERGY CHANGE    -0.289E-05

 MAX GRADIENT      0.000858  THRESHOLD              0.000450 CONVERGED NO
 RMS GRADIENT      0.000339  THRESHOLD              0.000300 CONVERGED NO
 MAX DISPLAC.      0.005199  THRESHOLD              0.001800 CONVERGED NO
 RMS DISPLAC.      0.003052  THRESHOLD              0.001200 CONVERGED NO
 TTTTTTTTTTTTTTTTTTTTTTTTTTTTTT OPTI        TELAPSE       11.56 TCPU        9.52
 *******************************************************************************
 COORDINATE AND CELL OPTIMIZATION - POINT   15
 *******************************************************************************
 LATTICE PARAMETERS (ANGSTROMS AND DEGREES) - BOHR = 0.5291772083 ANGSTROM
 PRIMITIVE CELL
         A              B              C           ALPHA      BETA       GAMMA 
     4.03968424   500.00000000   500.00000000    90.000000  90.000000  90.000000
 *******************************************************************************
 ATOMS IN THE ASYMMETRIC UNIT    6 - ATOMS IN THE UNIT CELL:    6
     ATOM              X/A             Y(ANGSTROM)         Z(ANGSTROM)
 *******************************************************************************
   1 T   8 O    -1.076316856608E-02 -7.151154327997E-02  1.837830146786E-01
   2 T   1 H     5.751024613936E-03  6.772768675076E-01 -4.466221943478E-01
   3 T   1 H     2.058021826033E-01 -6.084522756459E-01  3.200111482473E-02
   4 T   8 O     4.892224687634E-01 -1.298471376220E+00 -1.834611812246E-01
   5 T   1 H    -4.943656405238E-01 -2.048579680958E+00  4.454604714330E-01
   6 T   1 H    -2.941408668908E-01 -7.620279914036E-01 -3.116122536393E-02

 T = ATOM BELONGING TO THE ASYMMETRIC UNIT

 TOTAL ENERGY(HF)(AU)(   6) -1.4996887290589E+02     DE (AU)   -4.693E-06

 SYMMETRY ALLOWED FORCES  (COORDINATE, FORCE)

    1  1.1928028E-04    2 -2.0916909E-04    3  4.7207675E-05    4 -5.9174683E-05
    5 -8.2142994E-05    6 -9.0261317E-06    7 -3.5696265E-05    8  1.6212483E-05
    9  1.3518006E-04   10  1.6344160E-04   11  7.3297596E-05   12  2.4054941E-05
   13  3.7502774E-05   14  6.4696314E-05   15  9.7091905E-05

 GRADIENT NORM     0.000372  GRADIENT THRESHOLD     0.500000

 PREDICTED ENERGY CHANGE    -0.111E-05

 MAX GRADIENT      0.000209  THRESHOLD              0.000450 CONVERGED YES
 RMS GRADIENT      0.000096  THRESHOLD              0.000300 CONVERGED YES
 MAX DISPLAC.      0.006643  THRESHOLD              0.001800 CONVERGED NO
 RMS DISPLAC.      0.002245  THRESHOLD              0.001200 CONVERGED NO
 TTTTTTTTTTTTTTTTTTTTTTTTTTTTTT OPTI        TELAPSE       12.38 TCPU       10.20
 *******************************************************************************
 COORDINATE AND CELL OPTIMIZATION - POINT   16
 *******************************************************************************
 LATTICE PARAMETERS (ANGSTROMS AND DEGREES) - BOHR = 0.5291772083 ANGSTROM
 PRIMITIVE CELL
         A              B              C           ALPHA      BETA       GAMMA 
     4.04446943   500.00000000   500.00000000    90.000000  90.000000  90.000000
 *******************************************************************************
 ATOMS IN THE ASYMMETRIC UNIT    6 - ATOMS IN THE UNIT CELL:    6
     ATOM              X/A             Y(ANGSTROM)         Z(ANGSTROM)
 *******************************************************************************
   1 T   8 O    -1.060821873305E-02 -7.271978714525E-02  1.839868646911E-01
   2 T   1 H     5.492035521998E-03  6.764216319228E-01 -4.462637934866E-01
   3 T   1 H     2.057917993839E-01 -6.078835317158E-01  3.167607137247E-02
   4 T   8 O     4.894178874039E-01 -1.297461593806E+00 -1.837096801607E-01
   5 T   1 H    -4.944648282300E-01 -2.047505944974E+00  4.454662719897E-01
   6 T   1 H    -2.941226753467E-01 -7.626167742813E-01 -3.115573440597E-02

 T = ATOM BELONGING TO THE ASYMMETRIC UNIT

 TOTAL ENERGY(HF)(AU)(   5) -1.4996887517717E+02     DE (AU)   -2.271E-06

 SYMMETRY ALLOWED FORCES  (COORDINATE, FORCE)

    1 -1.5569541E-05    2 -7.5204868E-06    3 -3.3699129E-05    4 -6.2650509E-06
    5 -9.9607036E-05    6  5.4795425E-06    7  7.5114351E-05    8 -1.8321752E-05
    9  5.8852329E-05   10 -1.3860240E-05   11 -4.8929679E-05   12  6.2625856E-05
   13  1.1926445E-05   14  5.2862132E-05   15  6.1242880E-05

 GRADIENT NORM     0.000185  GRADIENT THRESHOLD     0.500000

 PREDICTED ENERGY CHANGE    -0.282E-06

 MAX GRADIENT      0.000100  THRESHOLD              0.000450 CONVERGED YES
 RMS GRADIENT      0.000048  THRESHOLD              0.000300 CONVERGED YES
 MAX DISPLAC.      0.003599  THRESHOLD              0.001800 CONVERGED NO
 RMS DISPLAC.      0.001275  THRESHOLD              0.001200 CONVERGED NO
 TTTTTTTTTTTTTTTTTTTTTTTTTTTTTT OPTI        TELAPSE       13.14 TCPU       10.85
 *******************************************************************************
 COORDINATE AND CELL OPTIMIZATION - POINT   17
 *******************************************************************************
 LATTICE PARAMETERS (ANGSTROMS AND DEGREES) - BOHR = 0.5291772083 ANGSTROM
 PRIMITIVE CELL
         A              B              C           ALPHA      BETA       GAMMA 
     4.04706472   500.00000000   500.00000000    90.000000  90.000000  90.000000
 *******************************************************************************
 ATOMS IN THE ASYMMETRIC UNIT    6 - ATOMS IN THE UNIT CELL:    6
     ATOM              X/A             Y(ANGSTROM)         Z(ANGSTROM)
 *******************************************************************************
   1 T   8 O    -1.055253872085E-02 -7.357202376741E-02  1.839795941825E-01
   2 T   1 H     5.538459676995E-03  6.756669066960E-01 -4.461175440734E-01
   3 T   1 H     2.057970629382E-01 -6.079664906897E-01  3.205399420744E-02
   4 T   8 O     4.894007681742E-01 -1.296646212363E+00 -1.836744806497E-01
   5 T   1 H    -4.944778088783E-01 -2.046737465770E+00  4.453059925725E-01
   6 T   1 H    -2.941999431902E-01 -7.625107141057E-01 -3.154755623923E-02

 T = ATOM BELONGING TO THE ASYMMETRIC UNIT

 TOTAL ENERGY(HF)(AU)(   3) -1.4996887583565E+02     DE (AU)   -6.585E-07

 SYMMETRY ALLOWED FORCES  (COORDINATE, FORCE)

    1 -1.3286578E-04    2  3.4296335E-05    3 -1.6596414E-05    4 -1.8849916E-05
    5 -2.8661493E-05    6  2.5951387E-05    7  2.4825426E-05    8  3.2894574E-06
    9  6.2843322E-06   10  2.6521081E-06   11 -1.6512418E-05   12 -4.7047783E-05
   13 -1.7466146E-05   14 -1.4733376E-05   15  3.2913713E-05

 GRADIENT NORM     0.000160  GRADIENT THRESHOLD     0.500000

 PREDICTED ENERGY CHANGE    -0.440E-07

 MAX GRADIENT      0.000133  THRESHOLD              0.000450 CONVERGED YES
 RMS GRADIENT      0.000041  THRESHOLD              0.000300 CONVERGED YES
 MAX DISPLAC.      0.000711  THRESHOLD              0.001800 CONVERGED YES
 RMS DISPLAC.      0.000339  THRESHOLD              0.001200 CONVERGED YES

 CONVERGENCE TESTS SATISFIED AFTER  17 ENERGY AND GRADIENT CALCULATIONS

 ******************************************************************
 * OPT END - CONVERGED * E(AU):  -1.499688758356E+02  POINTS   17 *
 ******************************************************************

 EIGENVECTORS IN FORTRAN UNIT  8

 NEIGHBORS OF THE NON-EQUIVALENT ATOMS

 N = NUMBER OF NEIGHBORS AT DISTANCE R
    ATOM  N     R/ANG      R/AU   NEIGHBORS (ATOM LABELS AND CELL INDICES)
   1 O    1     0.9811     1.8541   2 H    0 0 0
   1 O    1     1.0370     1.9596   3 H    0 0 0
   1 O    1     1.3560     2.5626   6 H    0 0 0
   1 O    1     2.3927     4.5215   4 O    0 0 0
   1 O    1     2.3930     4.5221   4 O   -1 0 0
   1 O    1     2.7924     5.2768   5 H    0 0 0

   2 H    1     0.9811     1.8541   1 O    0 0 0
   2 H    1     1.5916     3.0077   3 H    0 0 0
   2 H    1     1.9266     3.6407   6 H    0 0 0
   2 H    1     2.7917     5.2755   4 O    0 0 0
   2 H    1     2.8848     5.4515   4 O   -1 0 0
   2 H    1     3.2050     6.0565   6 H    1 0 0

   3 H    1     1.0370     1.9596   1 O    0 0 0
   3 H    1     1.3558     2.5621   4 O    0 0 0
   3 H    1     1.5916     3.0077   2 H    0 0 0
   3 H    1     1.9267     3.6410   5 H    1 0 0
   3 H    1     2.0304     3.8369   6 H    0 0 0
   3 H    1     2.0304     3.8370   6 H    1 0 0

   4 O    1     0.9811     1.8540   5 H    1 0 0
   4 O    1     1.0370     1.9597   6 H    1 0 0
   4 O    1     1.3558     2.5621   3 H    0 0 0
   4 O    1     2.3927     4.5215   1 O    0 0 0
   4 O    1     2.3930     4.5221   1 O    1 0 0
   4 O    1     2.7917     5.2755   2 H    0 0 0

   5 H    1     0.9811     1.8540   4 O   -1 0 0
   5 H    1     1.5917     3.0079   6 H    0 0 0
   5 H    1     1.9267     3.6410   3 H   -1 0 0
   5 H    1     2.7924     5.2768   1 O    0 0 0
   5 H    1     2.8851     5.4521   1 O   -1 0 0
   5 H    1     3.2051     6.0568   3 H    0 0 0

   6 H    1     1.0370     1.9597   4 O   -1 0 0
   6 H    1     1.3560     2.5626   1 O    0 0 0
   6 H    1     1.5917     3.0079   5 H    0 0 0
   6 H    1     1.9266     3.6407   2 H    0 0 0
   6 H    1     2.0304     3.8369   3 H    0 0 0
   6 H    1     2.0304     3.8370   3 H   -1 0 0


 FINAL OPTIMIZED GEOMETRY - DIMENSIONALITY OF THE SYSTEM      1
 (NON PERIODIC DIRECTION: LATTICE PARAMETER FORMALLY SET TO 500)
 *******************************************************************************
 LATTICE PARAMETERS (ANGSTROMS AND DEGREES) - BOHR = 0.5291772083 ANGSTROM
 PRIMITIVE CELL
         A              B              C           ALPHA      BETA       GAMMA 
     4.04706472   500.00000000   500.00000000    90.000000  90.000000  90.000000
 *******************************************************************************
 ATOMS IN THE ASYMMETRIC UNIT    6 - ATOMS IN THE UNIT CELL:    6
     ATOM              X/A             Y(ANGSTROM)         Z(ANGSTROM)
 *******************************************************************************
   1 T   8 O    -1.055253872085E-02 -7.357202376741E-02  1.839795941825E-01
   2 T   1 H     5.538459676995E-03  6.756669066960E-01 -4.461175440734E-01
   3 T   1 H     2.057970629382E-01 -6.079664906897E-01  3.205399420744E-02
   4 T   8 O     4.894007681742E-01 -1.296646212363E+00 -1.836744806497E-01
   5 T   1 H    -4.944778088783E-01 -2.046737465770E+00  4.453059925725E-01
   6 T   1 H    -2.941999431902E-01 -7.625107141057E-01 -3.154755623923E-02

 T = ATOM BELONGING TO THE ASYMMETRIC UNIT
 INFORMATION **** fort.34 **** GEOMETRY OUTPUT FILE

 DIRECT LATTICE VECTORS CARTESIAN COMPONENTS (ANGSTROM)
          X                    Y                    Z
   0.404706471952E+01   0.000000000000E+00   0.000000000000E+00
   0.000000000000E+00   0.500000000000E+03   0.000000000000E+00
   0.000000000000E+00   0.000000000000E+00   0.500000000000E+03


 CARTESIAN COORDINATES - PRIMITIVE CELL
 *******************************************************************************
 *      ATOM          X(ANGSTROM)         Y(ANGSTROM)         Z(ANGSTROM)
 *******************************************************************************
   1     8 O    -4.270680715851E-02 -7.357202376741E-02  1.839795941825E-01
   2     1 H     2.241450475925E-02  6.756669066960E-01 -4.461175440734E-01
   3     1 H     8.328740327981E-01 -6.079664906897E-01  3.205399420744E-02
   4     8 O     1.980636582584E+00 -1.296646212363E+00 -1.836744806497E-01
   5     1 H    -2.001183694897E+00 -2.046737465770E+00  4.453059925725E-01
   6     1 H    -1.190646210570E+00 -7.625107141057E-01 -3.154755623923E-02

 ****   1 SYMMOPS - TRANSLATORS IN FRACTIONARY UNITS
  V INV                   ROTATION MATRICES                       TRANSLATOR
  1  1  1.00  0.00  0.00  0.00  1.00  0.00  0.00  0.00  1.00    0.00  0.00  0.00
 TTTTTTTTTTTTTTTTTTTTTTTTTTTTTT END         TELAPSE       14.01 TCPU       11.56
 EEEEEEEEEE TERMINATION  DATE 23 02 2010 TIME 11:40:34.9
NODE    0 CPU TIME =        11.565
NODE    1 CPU TIME =        10.753
    TOTAL CPU TIME =        22.317
Tue Feb 23 11:40:35 GMT 2010
