[Molden Format]
[Title]
                                                                                
[Atoms] AU
 o     1    8 0.00000000000000E+00 0.00000000000000E+00 -.72362843501601E+00
 h     2    1 -.14179523988686E+01 0.00000000000000E+00 0.36181404139068E+00
 h     3    1 0.14179523988686E+01 0.00000000000000E+00 0.36181404139068E+00
[GTO]
    1 0
 s    5 1.00
 0.22661767785000E+04 -.53893503921743E-02
 0.34087010191000E+03 -.40234721388960E-01
 0.77363135167000E+02 -.18008184205526E+00
 0.21479644940000E+02 -.46828857657651E+00
 0.66589433124000E+01 -.44692617160187E+00
 s    1 1.00
 0.80975975668000E+00 0.10000000000000E+01
 s    1 1.00
 0.25530772234000E+00 0.10000000000000E+01
 p    3 1.00
 0.17721504317000E+02 0.62630248763161E-01
 0.38635505440000E+01 0.33331138482352E+00
 0.10480920883000E+01 0.74148638308122E+00
 p    1 1.00
 0.27641544411000E+00 0.10000000000000E+01
 d    1 1.00
 0.12000000000000E+01 0.10000000000000E+01
 
    2 0
 s    3 1.00
 0.13010701000000E+02 0.33485484812989E-01
 0.19622572000000E+01 0.23472187088125E+00
 0.44453796000000E+00 0.81377028525955E+00
 s    1 1.00
 0.12194962000000E+00 0.10000000000000E+01
 p    1 1.00
 0.80000000000000E+00 0.10000000000000E+01
 
    3 0
 s    3 1.00
 0.13010701000000E+02 0.33485484812989E-01
 0.19622572000000E+01 0.23472187088125E+00
 0.44453796000000E+00 0.81377028525955E+00
 s    1 1.00
 0.12194962000000E+00 0.10000000000000E+01
 p    1 1.00
 0.80000000000000E+00 0.10000000000000E+01
 
[MO]
 Sym=    1a1  
 Ene= -.20543422157212E+02
 Spin= Alpha
 Occup= 2.000000
    1 0.99029398046463E+00
    2 -.33583856928124E-01
    3 0.10289270886887E-01
    4 0.00000000000000E+00
    5 0.00000000000000E+00
    6 -.28701922422820E-02
    7 0.00000000000000E+00
    8 0.00000000000000E+00
    9 0.64725822768522E-04
   10 -.44638417796492E-03
   11 0.50268616388930E-03
   12 -.56301985924370E-04
   13 0.00000000000000E+00
   14 0.00000000000000E+00
   15 0.00000000000000E+00
   16 0.20124073380128E-02
   17 -.17935060151046E-02
   18 0.20399691513026E-02
   19 0.00000000000000E+00
   20 -.15824206103057E-02
   21 0.20124073380128E-02
   22 -.17935060151046E-02
   23 -.20399691513026E-02
   24 0.00000000000000E+00
   25 -.15824206103057E-02
 Sym=    2a1  
 Ene= -.13248710151755E+01
 Spin= Alpha
 Occup= 2.000000
    1 0.27815369169942E+00
    2 0.54797903830634E+00
    3 0.28123513233667E+00
    4 0.00000000000000E+00
    5 0.00000000000000E+00
    6 0.87011094155935E-01
    7 0.00000000000000E+00
    8 0.00000000000000E+00
    9 -.67379369330051E-02
   10 0.16141304241615E-02
   11 -.25196640648619E-02
   12 0.90553364070039E-03
   13 0.00000000000000E+00
   14 0.00000000000000E+00
   15 0.00000000000000E+00
   16 0.19868821727106E+00
   17 0.61508966177537E-02
   18 0.33128552058809E-01
   19 0.00000000000000E+00
   20 -.17029676037034E-01
   21 0.19868821727106E+00
   22 0.61508966177537E-02
   23 -.33128552058809E-01
   24 0.00000000000000E+00
   25 -.17029676037034E-01
 Sym=    1b1  
 Ene= -.71153654055045E+00
 Spin= Alpha
 Occup= 2.000000
    1 0.00000000000000E+00
    2 0.00000000000000E+00
    3 0.00000000000000E+00
    4 0.49259842510106E+00
    5 0.00000000000000E+00
    6 0.00000000000000E+00
    7 0.22134171353841E+00
    8 0.00000000000000E+00
    9 0.00000000000000E+00
   10 0.00000000000000E+00
   11 0.00000000000000E+00
   12 0.00000000000000E+00
   13 0.00000000000000E+00
   14 0.15321240988103E-01
   15 0.00000000000000E+00
   16 -.32996003961295E+00
   17 -.81211378114623E-01
   18 -.21822521896182E-01
   19 0.00000000000000E+00
   20 0.30499946303890E-01
   21 0.32996003961295E+00
   22 0.81211378114623E-01
   23 -.21822521896182E-01
   24 0.00000000000000E+00
   25 -.30499946303890E-01
 Sym=    3a1  
 Ene= -.56923321546489E+00
 Spin= Alpha
 Occup= 2.000000
    1 -.96161174965738E-01
    2 -.20048931527144E+00
    3 -.33434978584201E+00
    4 0.00000000000000E+00
    5 0.00000000000000E+00
    6 0.54928484332447E+00
    7 0.00000000000000E+00
    8 0.00000000000000E+00
    9 0.36137372192726E+00
   10 -.32668567052269E-02
   11 -.71276026150757E-02
   12 0.10394459320303E-01
   13 0.00000000000000E+00
   14 0.00000000000000E+00
   15 0.00000000000000E+00
   16 0.20200163760369E+00
   17 0.50451810317355E-01
   18 0.30371282855386E-01
   19 0.00000000000000E+00
   20 0.78615442928951E-02
   21 0.20200163760369E+00
   22 0.50451810317355E-01
   23 -.30371282855386E-01
   24 0.00000000000000E+00
   25 0.78615442928951E-02
 Sym=    1b2  
 Ene= -.49884141932828E+00
 Spin= Alpha
 Occup= 2.000000
    1 0.00000000000000E+00
    2 0.00000000000000E+00
    3 0.00000000000000E+00
    4 0.00000000000000E+00
    5 0.63202346262626E+00
    6 0.00000000000000E+00
    7 0.00000000000000E+00
    8 0.49673579345061E+00
    9 0.00000000000000E+00
   10 0.00000000000000E+00
   11 0.00000000000000E+00
   12 0.00000000000000E+00
   13 0.00000000000000E+00
   14 0.00000000000000E+00
   15 0.10686566643827E-01
   16 0.00000000000000E+00
   17 0.00000000000000E+00
   18 0.00000000000000E+00
   19 0.29467227206072E-01
   20 0.00000000000000E+00
   21 0.00000000000000E+00
   22 0.00000000000000E+00
   23 0.00000000000000E+00
   24 0.29467227206072E-01
   25 0.00000000000000E+00
 Sym=    4a1  
 Ene= 0.17822991175232E+00
 Spin= Alpha
 Occup= 0.000000
    1 0.87136636519026E-01
    2 0.88762575816623E-01
    3 0.11185593804984E+01
    4 0.00000000000000E+00
    5 0.00000000000000E+00
    6 0.18180903928364E+00
    7 0.00000000000000E+00
    8 0.00000000000000E+00
    9 0.36125608444115E+00
   10 0.29059293557032E-02
   11 -.74543575788608E-02
   12 0.45484282231575E-02
   13 0.00000000000000E+00
   14 0.00000000000000E+00
   15 0.00000000000000E+00
   16 -.64833312069551E-01
   17 -.90544245363953E+00
   18 -.16250463056610E-01
   19 0.00000000000000E+00
   20 0.11740394527556E-01
   21 -.64833312069551E-01
   22 -.90544245363953E+00
   23 0.16250463056610E-01
   24 0.00000000000000E+00
   25 0.11740394527556E-01
 Sym=    2b1  
 Ene= 0.25709481920495E+00
 Spin= Alpha
 Occup= 0.000000
    1 0.00000000000000E+00
    2 0.00000000000000E+00
    3 0.00000000000000E+00
    4 0.27851910064724E+00
    5 0.00000000000000E+00
    6 0.00000000000000E+00
    7 0.65908009320344E+00
    8 0.00000000000000E+00
    9 0.00000000000000E+00
   10 0.00000000000000E+00
   11 0.00000000000000E+00
   12 0.00000000000000E+00
   13 0.00000000000000E+00
   14 0.11550049229143E-01
   15 0.00000000000000E+00
   16 0.22110202284142E-01
   17 0.14522761486236E+01
   18 0.15915536100737E-01
   19 0.00000000000000E+00
   20 -.13046228695072E-01
   21 -.22110202284142E-01
   22 -.14522761486236E+01
   23 0.15915536100737E-01
   24 0.00000000000000E+00
   25 0.13046228695072E-01
 Sym=    3b1  
 Ene= 0.80648337005006E+00
 Spin= Alpha
 Occup= 0.000000
    1 0.00000000000000E+00
    2 0.00000000000000E+00
    3 0.00000000000000E+00
    4 0.26809334330147E+00
    5 0.00000000000000E+00
    6 0.00000000000000E+00
    7 0.54867352799936E+00
    8 0.00000000000000E+00
    9 0.00000000000000E+00
   10 0.00000000000000E+00
   11 0.00000000000000E+00
   12 0.00000000000000E+00
   13 0.00000000000000E+00
   14 -.63247038318755E-01
   15 0.00000000000000E+00
   16 0.97496311262375E+00
   17 -.63766317581703E+00
   18 -.58342020586068E-01
   19 0.00000000000000E+00
   20 0.12981583023716E+00
   21 -.97496311262375E+00
   22 0.63766317581703E+00
   23 -.58342020586068E-01
   24 0.00000000000000E+00
   25 -.12981583023716E+00
 Sym=    5a1  
 Ene= 0.87948487774077E+00
 Spin= Alpha
 Occup= 0.000000
    1 0.11605729378198E+00
    2 0.39879594230617E+00
    3 -.37558789035434E+00
    4 0.00000000000000E+00
    5 0.00000000000000E+00
    6 0.32568990817515E+00
    7 0.00000000000000E+00
    8 0.00000000000000E+00
    9 0.53836220225491E-01
   10 -.54257648340904E-01
   11 0.53629137238326E-01
   12 0.62851110257873E-03
   13 0.00000000000000E+00
   14 0.00000000000000E+00
   15 0.00000000000000E+00
   16 -.82558009030363E+00
   17 0.55629074025989E+00
   18 0.25368127788858E+00
   19 0.00000000000000E+00
   20 -.51077435566537E-01
   21 -.82558009030363E+00
   22 0.55629074025989E+00
   23 -.25368127788858E+00
   24 0.00000000000000E+00
   25 -.51077435566537E-01
 Sym=    6a1  
 Ene= 0.11838068843963E+01
 Spin= Alpha
 Occup= 0.000000
    1 0.12536326423410E+00
    2 0.53486212914845E+00
    3 0.73173320878824E-01
    4 0.00000000000000E+00
    5 0.00000000000000E+00
    6 -.79427014732528E+00
    7 0.00000000000000E+00
    8 0.00000000000000E+00
    9 0.12133352656533E+01
   10 -.37441680521792E-02
   11 0.11237535226991E-02
   12 0.26204145294801E-02
   13 0.00000000000000E+00
   14 0.00000000000000E+00
   15 0.00000000000000E+00
   16 -.41187916269274E+00
   17 -.40535771912920E-01
   18 -.76834224246871E-01
   19 0.00000000000000E+00
   20 0.13833622639333E+00
   21 -.41187916269274E+00
   22 -.40535771912920E-01
   23 0.76834224246871E-01
   24 0.00000000000000E+00
   25 0.13833622639333E+00
 Sym=    2b2  
 Ene= 0.12018598735907E+01
 Spin= Alpha
 Occup= 0.000000
    1 0.00000000000000E+00
    2 0.00000000000000E+00
    3 0.00000000000000E+00
    4 0.00000000000000E+00
    5 -.96697596766290E+00
    6 0.00000000000000E+00
    7 0.00000000000000E+00
    8 0.10413044808955E+01
    9 0.00000000000000E+00
   10 0.00000000000000E+00
   11 0.00000000000000E+00
   12 0.00000000000000E+00
   13 0.00000000000000E+00
   14 0.00000000000000E+00
   15 -.27792160788598E-02
   16 0.00000000000000E+00
   17 0.00000000000000E+00
   18 0.00000000000000E+00
   19 -.10461263129316E-01
   20 0.00000000000000E+00
   21 0.00000000000000E+00
   22 0.00000000000000E+00
   23 0.00000000000000E+00
   24 -.10461263129316E-01
   25 0.00000000000000E+00
 Sym=    4b1  
 Ene= 0.12678745289550E+01
 Spin= Alpha
 Occup= 0.000000
    1 0.00000000000000E+00
    2 0.00000000000000E+00
    3 0.00000000000000E+00
    4 -.75868773407555E+00
    5 0.00000000000000E+00
    6 0.00000000000000E+00
    7 0.17456263464243E+01
    8 0.00000000000000E+00
    9 0.00000000000000E+00
   10 0.00000000000000E+00
   11 0.00000000000000E+00
   12 0.00000000000000E+00
   13 0.00000000000000E+00
   14 0.29017158690586E-01
   15 0.00000000000000E+00
   16 0.35264322910983E+00
   17 0.81903426827236E+00
   18 0.26267110445230E+00
   19 0.00000000000000E+00
   20 -.17245742451238E+00
   21 -.35264322910983E+00
   22 -.81903426827236E+00
   23 0.26267110445230E+00
   24 0.00000000000000E+00
   25 0.17245742451238E+00
 Sym=    7a1  
 Ene= 0.13388831716567E+01
 Spin= Alpha
 Occup= 0.000000
    1 -.24815209628125E+00
    2 -.15467088851554E+01
    3 0.28328451527423E+01
    4 0.00000000000000E+00
    5 0.00000000000000E+00
    6 -.65940182519645E-01
    7 0.00000000000000E+00
    8 0.00000000000000E+00
    9 0.59789602910399E+00
   10 -.29461344450605E-01
   11 0.75521587089163E-02
   12 0.21909185741688E-01
   13 0.00000000000000E+00
   14 0.00000000000000E+00
   15 0.00000000000000E+00
   16 -.53444227498294E+00
   17 -.51464252163266E+00
   18 0.14979107699702E-02
   19 0.00000000000000E+00
   20 0.31807670260093E+00
   21 -.53444227498294E+00
   22 -.51464252163266E+00
   23 -.14979107699702E-02
   24 0.00000000000000E+00
   25 0.31807670260093E+00
 Sym=    1a2  
 Ene= 0.15984148450251E+01
 Spin= Alpha
 Occup= 0.000000
    1 0.00000000000000E+00
    2 0.00000000000000E+00
    3 0.00000000000000E+00
    4 0.00000000000000E+00
    5 0.00000000000000E+00
    6 0.00000000000000E+00
    7 0.00000000000000E+00
    8 0.00000000000000E+00
    9 0.00000000000000E+00
   10 0.00000000000000E+00
   11 0.00000000000000E+00
   12 0.00000000000000E+00
   13 -.93688539669450E-01
   14 0.00000000000000E+00
   15 0.00000000000000E+00
   16 0.00000000000000E+00
   17 0.00000000000000E+00
   18 0.00000000000000E+00
   19 0.67026286681919E+00
   20 0.00000000000000E+00
   21 0.00000000000000E+00
   22 0.00000000000000E+00
   23 0.00000000000000E+00
   24 -.67026286681919E+00
   25 0.00000000000000E+00
 Sym=    8a1  
 Ene= 0.16699524195610E+01
 Spin= Alpha
 Occup= 0.000000
    1 0.83595776274050E-01
    2 0.69258154224902E+00
    3 -.16732935150555E+01
    4 0.00000000000000E+00
    5 0.00000000000000E+00
    6 0.47622491090278E-01
    7 0.00000000000000E+00
    8 0.00000000000000E+00
    9 -.11477956876523E+01
   10 -.37515324679595E-01
   11 -.67796068288117E-01
   12 0.10531139296771E+00
   13 0.00000000000000E+00
   14 0.00000000000000E+00
   15 0.00000000000000E+00
   16 0.74187121588402E+00
   17 0.17510536969637E+00
   18 0.42955583079724E+00
   19 0.00000000000000E+00
   20 0.46494185029341E+00
   21 0.74187121588402E+00
   22 0.17510536969637E+00
   23 -.42955583079724E+00
   24 0.00000000000000E+00
   25 0.46494185029341E+00
 Sym=    3b2  
 Ene= 0.18149734490060E+01
 Spin= Alpha
 Occup= 0.000000
    1 0.00000000000000E+00
    2 0.00000000000000E+00
    3 0.00000000000000E+00
    4 0.00000000000000E+00
    5 -.52760473606183E-01
    6 0.00000000000000E+00
    7 0.00000000000000E+00
    8 -.55307557207485E+00
    9 0.00000000000000E+00
   10 0.00000000000000E+00
   11 0.00000000000000E+00
   12 0.00000000000000E+00
   13 0.00000000000000E+00
   14 0.00000000000000E+00
   15 0.11433635245616E+00
   16 0.00000000000000E+00
   17 0.00000000000000E+00
   18 0.00000000000000E+00
   19 0.74237063654367E+00
   20 0.00000000000000E+00
   21 0.00000000000000E+00
   22 0.00000000000000E+00
   23 0.00000000000000E+00
   24 0.74237063654367E+00
   25 0.00000000000000E+00
 Sym=    5b1  
 Ene= 0.20706644012506E+01
 Spin= Alpha
 Occup= 0.000000
    1 0.00000000000000E+00
    2 0.00000000000000E+00
    3 0.00000000000000E+00
    4 0.13138792351965E-01
    5 0.00000000000000E+00
    6 0.00000000000000E+00
    7 -.82729856326978E+00
    8 0.00000000000000E+00
    9 0.00000000000000E+00
   10 0.00000000000000E+00
   11 0.00000000000000E+00
   12 0.00000000000000E+00
   13 0.00000000000000E+00
   14 0.13931606811977E-01
   15 0.00000000000000E+00
   16 -.35978812194624E+00
   17 -.82656241554881E-01
   18 0.47855129687118E+00
   19 0.00000000000000E+00
   20 0.66356345647987E+00
   21 0.35978812194624E+00
   22 0.82656241554881E-01
   23 0.47855129687118E+00
   24 0.00000000000000E+00
   25 -.66356345647987E+00
 Sym=    6b1  
 Ene= 0.25971979142822E+01
 Spin= Alpha
 Occup= 0.000000
    1 0.00000000000000E+00
    2 0.00000000000000E+00
    3 0.00000000000000E+00
    4 0.81513009201788E+00
    5 0.00000000000000E+00
    6 0.00000000000000E+00
    7 0.10700008593365E+00
    8 0.00000000000000E+00
    9 0.00000000000000E+00
   10 0.00000000000000E+00
   11 0.00000000000000E+00
   12 0.00000000000000E+00
   13 0.00000000000000E+00
   14 -.10208842394790E+00
   15 0.00000000000000E+00
   16 0.25391909224556E+00
   17 0.28617580600748E+00
   18 0.67640500210459E+00
   19 0.00000000000000E+00
   20 -.54385809523700E+00
   21 -.25391909224556E+00
   22 -.28617580600748E+00
   23 0.67640500210459E+00
   24 0.00000000000000E+00
   25 0.54385809523700E+00
 Sym=    9a1  
 Ene= 0.26304849975604E+01
 Spin= Alpha
 Occup= 0.000000
    1 0.15984837573615E+00
    2 0.85043413291150E+00
    3 0.60113182833644E+00
    4 0.00000000000000E+00
    5 0.00000000000000E+00
    6 0.63087457654738E+00
    7 0.00000000000000E+00
    8 0.00000000000000E+00
    9 0.17287205811089E+00
   10 -.11759712207116E+00
   11 0.17351123014569E+00
   12 -.55914108074540E-01
   13 0.00000000000000E+00
   14 0.00000000000000E+00
   15 0.00000000000000E+00
   16 -.43128968454375E+00
   17 -.17171189727168E+00
   18 -.71781380639524E+00
   19 0.00000000000000E+00
   20 0.49541161738217E+00
   21 -.43128968454375E+00
   22 -.17171189727168E+00
   23 0.71781380639524E+00
   24 0.00000000000000E+00
   25 0.49541161738217E+00
 Sym=    4b2  
 Ene= 0.33354692288892E+01
 Spin= Alpha
 Occup= 0.000000
    1 0.00000000000000E+00
    2 0.00000000000000E+00
    3 0.00000000000000E+00
    4 0.00000000000000E+00
    5 -.20930410862715E-02
    6 0.00000000000000E+00
    7 0.00000000000000E+00
    8 0.30333247335691E+00
    9 0.00000000000000E+00
   10 0.00000000000000E+00
   11 0.00000000000000E+00
   12 0.00000000000000E+00
   13 0.00000000000000E+00
   14 0.00000000000000E+00
   15 0.59764104296689E+00
   16 0.00000000000000E+00
   17 0.00000000000000E+00
   18 0.00000000000000E+00
   19 -.41696414490974E+00
   20 0.00000000000000E+00
   21 0.00000000000000E+00
   22 0.00000000000000E+00
   23 0.00000000000000E+00
   24 -.41696414490974E+00
   25 0.00000000000000E+00
 Sym=    2a2  
 Ene= 0.34014183199089E+01
 Spin= Alpha
 Occup= 0.000000
    1 0.00000000000000E+00
    2 0.00000000000000E+00
    3 0.00000000000000E+00
    4 0.00000000000000E+00
    5 0.00000000000000E+00
    6 0.00000000000000E+00
    7 0.00000000000000E+00
    8 0.00000000000000E+00
    9 0.00000000000000E+00
   10 0.00000000000000E+00
   11 0.00000000000000E+00
   12 0.00000000000000E+00
   13 0.61404007516466E+00
   14 0.00000000000000E+00
   15 0.00000000000000E+00
   16 0.00000000000000E+00
   17 0.00000000000000E+00
   18 0.00000000000000E+00
   19 0.39197495064817E+00
   20 0.00000000000000E+00
   21 0.00000000000000E+00
   22 0.00000000000000E+00
   23 0.00000000000000E+00
   24 -.39197495064817E+00
   25 0.00000000000000E+00
 Sym=   10a1  
 Ene= 0.35866161835429E+01
 Spin= Alpha
 Occup= 0.000000
    1 0.59199328943312E-02
    2 -.62012665708138E-01
    3 0.60714103707027E+00
    4 0.00000000000000E+00
    5 0.00000000000000E+00
    6 0.51820953540462E-01
    7 0.00000000000000E+00
    8 0.00000000000000E+00
    9 0.57839629861269E+00
   10 -.37622726669477E+00
   11 -.24984111134315E+00
   12 0.62606837803791E+00
   13 0.00000000000000E+00
   14 0.00000000000000E+00
   15 0.00000000000000E+00
   16 -.35648136538777E+00
   17 -.68046568671430E-01
   18 -.40085079656612E+00
   19 0.00000000000000E+00
   20 -.31164624568215E+00
   21 -.35648136538777E+00
   22 -.68046568671430E-01
   23 0.40085079656612E+00
   24 0.00000000000000E+00
   25 -.31164624568215E+00
 Sym=   11a1  
 Ene= 0.39247219090579E+01
 Spin= Alpha
 Occup= 0.000000
    1 0.87781415472062E-01
    2 0.25252480061358E+00
    3 0.19040704772525E+01
    4 0.00000000000000E+00
    5 0.00000000000000E+00
    6 0.42722213984737E+00
    7 0.00000000000000E+00
    8 0.00000000000000E+00
    9 0.87257795768151E+00
   10 0.55851544054012E+00
   11 -.60145481172018E+00
   12 0.42939371180064E-01
   13 0.00000000000000E+00
   14 0.00000000000000E+00
   15 0.00000000000000E+00
   16 -.11985830300123E+01
   17 -.22299596819256E+00
   18 -.61627097760740E+00
   19 0.00000000000000E+00
   20 0.51621742119275E+00
   21 -.11985830300123E+01
   22 -.22299596819256E+00
   23 0.61627097760740E+00
   24 0.00000000000000E+00
   25 0.51621742119275E+00
 Sym=    7b1  
 Ene= 0.42438483667674E+01
 Spin= Alpha
 Occup= 0.000000
    1 0.00000000000000E+00
    2 0.00000000000000E+00
    3 0.00000000000000E+00
    4 0.53154667737337E+00
    5 0.00000000000000E+00
    6 0.00000000000000E+00
    7 0.11199020809390E+01
    8 0.00000000000000E+00
    9 0.00000000000000E+00
   10 0.00000000000000E+00
   11 0.00000000000000E+00
   12 0.00000000000000E+00
   13 0.00000000000000E+00
   14 0.77558418873297E+00
   15 0.00000000000000E+00
   16 0.11139991887228E+01
   17 0.25586174718520E+00
   18 0.63378497061882E+00
   19 0.00000000000000E+00
   20 -.50309538078783E+00
   21 -.11139991887228E+01
   22 -.25586174718520E+00
   23 0.63378497061882E+00
   24 0.00000000000000E+00
   25 0.50309538078783E+00
[FREQ]
 0.00000000000000E+00
 0.00000000000000E+00
 0.00000000000000E+00
 0.00000000000000E+00
 0.00000000000000E+00
 0.00000000000000E+00
 0.17503800000000E+04
 0.41486400000000E+04
 0.42447800000000E+04
[INT]
 0.00000000000000E+00
 0.00000000000000E+00
 0.00000000000000E+00
 0.00000000000000E+00
 0.00000000000000E+00
 0.00000000000000E+00
 0.82691570000000E+02
 0.26803880000000E+02
 0.74479640000000E+02
[FR-COORD]
 o  0.00000000000000E+00 0.00000000000000E+00 -.72362843501601E+00
 h  -.14179523988686E+01 0.00000000000000E+00 0.36181404139068E+00
 h  0.14179523988686E+01 0.00000000000000E+00 0.36181404139068E+00
[FR-NORM-COORD]
 vibration    1
 0.49303958200000E-01 0.00000000000000E+00 0.97926305400000E-01
 -.39129822730000E+00 0.00000000000000E+00 -.47764811650000E+00
 -.39129822730000E+00 0.00000000000000E+00 0.67350072740000E+00
 vibration    2
 0.00000000000000E+00 0.10000000000000E+01 0.00000000000000E+00
 0.00000000000000E+00 0.00000000000000E+00 0.00000000000000E+00
 0.00000000000000E+00 0.00000000000000E+00 0.00000000000000E+00
 vibration    3
 0.00000000000000E+00 0.00000000000000E+00 0.00000000000000E+00
 0.00000000000000E+00 0.10000000000000E+01 0.00000000000000E+00
 0.00000000000000E+00 0.00000000000000E+00 0.00000000000000E+00
 vibration    4
 0.42162913450000E+00 0.00000000000000E+00 -.61632563000000E-01
 0.37444941120000E+00 0.00000000000000E+00 -.12326512590000E+00
 0.37444941120000E+00 0.72305690350000E+00 0.00000000000000E+00
 vibration    5
 -.48858708200000E-01 0.00000000000000E+00 0.27582085470000E+00
 0.16228213960000E+00 0.00000000000000E+00 0.55164170950000E+00
 0.16228213960000E+00 0.75136949730000E+00 0.00000000000000E+00
 vibration    6
 0.99735489900000E-01 0.00000000000000E+00 0.12739581920000E+00
 0.19725698180000E+00 0.00000000000000E+00 0.25479163830000E+00
 0.19725698180000E+00 -.91163793500000E+00 0.00000000000000E+00
 vibration    7
 0.00000000000000E+00 0.00000000000000E+00 -.70162843600000E-01
 0.43297081960000E+00 0.00000000000000E+00 0.55684365590000E+00
 -.43297081960000E+00 0.00000000000000E+00 0.55684365590000E+00
 vibration    8
 0.00000000000000E+00 0.00000000000000E+00 0.50561836800000E-01
 0.58111535630000E+00 0.00000000000000E+00 -.40128131410000E+00
 -.58111535630000E+00 0.00000000000000E+00 -.40128131410000E+00
 vibration    9
 0.70570715400000E-01 0.00000000000000E+00 0.00000000000000E+00
 -.56008070840000E+00 0.00000000000000E+00 0.42874174880000E+00
 -.56008070840000E+00 0.00000000000000E+00 -.42874174880000E+00
[GEOCONV]
energy
-.75960756002000E+02
-.75961091052100E+02
-.75961320555300E+02
-.75961337317300E+02
-.75961338487700E+02
-.75961338493500E+02
max-force
0.15499000000000E-01
0.11197000000000E-01
0.50420000000000E-02
0.15350000000000E-02
0.42000000000000E-04
0.60000000000000E-05
[GEOMETRIES] XYZ
     3

 o  0.00000000000000E+00 0.00000000000000E+00 -.36565628831562E+00
 h  -.77567072215814E+00 0.00000000000000E+00 0.18282805096053E+00
 h  0.77567072215814E+00 0.00000000000000E+00 0.18282805096053E+00
     3

 o  0.00000000000000E+00 0.00000000000000E+00 -.36867448384627E+00
 h  -.76437010497725E+00 0.00000000000000E+00 0.18433714872586E+00
 h  0.76437010497725E+00 0.00000000000000E+00 0.18433714872586E+00
     3

 o  0.00000000000000E+00 0.00000000000000E+00 -.38665972359847E+00
 h  -.74841703888454E+00 0.00000000000000E+00 0.19332976860196E+00
 h  0.74841703888454E+00 0.00000000000000E+00 0.19332976860196E+00
     3

 o  0.00000000000000E+00 0.00000000000000E+00 -.38273076983025E+00
 h  -.74967971127254E+00 0.00000000000000E+00 0.19136529171784E+00
 h  0.74967971127254E+00 0.00000000000000E+00 0.19136529171784E+00
     3

 o  0.00000000000000E+00 0.00000000000000E+00 -.38292460265505E+00
 h  -.75037366751872E+00 0.00000000000000E+00 0.19146220813024E+00
 h  0.75037366751872E+00 0.00000000000000E+00 0.19146220813024E+00
     3

 o  0.00000000000000E+00 0.00000000000000E+00 -.38292554921755E+00
 h  -.75034779413229E+00 0.00000000000000E+00 0.19146268141149E+00
 h  0.75034779413229E+00 0.00000000000000E+00 0.19146268141149E+00
