Job CH3Cl_6-31G++ started on chem-alpha at Tue Aug 21 07:28:17 2007
jobid: chem-alpha-0-46669a4e

  +--------------------------------------------------------------------+
  |  Jaguar version 7.0, release 109                                   |
  |                                                                    |
  |  Copyright (c) 2007 Schrodinger,  LLC.                             |
  |  All Rights Reserved.                                              |
  |                                                                    |
  |  Use of this program should be acknowledged in publications as:    |
  |  Jaguar, version 7.0, Schrodinger, LLC, New York, NY, 2007.        |
  +--------------------------------------------------------------------+
   
  start of program pre
  Job name: CH3Cl_6-31G++
  Executables used: /software/schrodinger/jaguar-v70109/bin/Linux-x86
  Temporary files : /var/tmp/hatuey/CH3Cl_6-31G++
  Maestro file (input):  CH3Cl_6-31G++.mae
  Maestro file (output): CH3Cl_6-31G++.01.mae
  
  
  Dynamic memory assumed available (MB):     256
  
  basis set:             6-31g**         
  net molecular charge:    0
  multiplicity:            1
  
  Running on   4 processors
   
  number of basis functions....           49
  
  Basis set name for each atom
  
  Atom     Basis 
  C1       6-31g**         
  Cl2      6-31g**         
  H3       6-31g**         
  H4       6-31g**         
  H5       6-31g**         
  
  Gaussian Functions - Shell information
  
             s    j
             h    c  i       n
             e    o  s       f
             l    n  h       s
  atom       l    t  l  l    h          z              coef            rcoef
--------    ---  --- -- --  ---     ----------      ----------       ---------
 C1          1    6  0  1    0    3047.5248800       0.0018347       0.5363452
 C1          2   -1  0  1    0     457.3695180       0.0140373       0.9894521
 C1          3   -1  0  1    0     103.9486850       0.0688426       1.5972825
 C1          4   -1  0  1    0      29.2101553       0.2321844       2.0791873
 C1          5   -1  0  1    0       9.2866630       0.4679413       1.7741743
 C1          6   -1  0  1    0       3.1639270       0.3623120       0.6125797
 C1          7    3  3  1    1       7.8682723      -0.1193324      -0.3995564
 C1          8   -7  3  1    1       1.8812885      -0.1608542      -0.1841552
 C1          9   -7  3  1    1       0.5442493       1.1434564       0.5163903
 C1         10    3 -1  2    2       7.8682723       0.0689991       1.2960822
 C1         11  -10 -1  2    2       1.8812885       0.3164240       0.9937536
 C1         12  -10 -1  2    2       0.5442493       0.7443083       0.4959527
 C1         13    1  1  1    5       0.1687145       1.0000000       0.1876179
 C1         14    1 -1  2    6       0.1687145       1.0000000       0.1541276
 C1         15    1  0  3    9       0.8000000       1.0000000       1.1138249
 Cl2         1    6  0  1   15   25180.1000000       0.0018330       2.6112962
 Cl2         2   -1  0  1   15    3780.3500000       0.0140342       4.8222167
 Cl2         3   -1  0  1   15     860.4740000       0.0690974       7.8239322
 Cl2         4   -1  0  1   15     242.1450000       0.2374520      10.3882530
 Cl2         5   -1  0  1   15      77.3349000       0.4830340       8.9777892
 Cl2         6   -1  0  1   15      26.2470000       0.3398560       2.8087608
 Cl2         7    6  6  1   16     491.7650000      -0.0022974      -0.1709871
 Cl2         8   -7  6  1   16     116.9840000      -0.0307137      -0.7786411
 Cl2         9   -7  6  1   16      37.4153000      -0.1125281      -1.2132712
 Cl2        10   -7  6  1   16      13.7834000       0.0450163       0.2295078
 Cl2        11   -7  6  1   16       5.4521500       0.5893534       1.4986896
 Cl2        12   -7  6  1   16       2.2258800       0.4652063       0.6042017
 Cl2        13    6 -1  2   17     491.7650000       0.0039894      13.1687571
 Cl2        14  -13 -1  2   17     116.9840000       0.0303177      16.6262581
 Cl2        15  -13 -1  2   17      37.4153000       0.1298800      17.1314453
 Cl2        16  -13 -1  2   17      13.7834000       0.3279511      12.4149391
 Cl2        17  -13 -1  2   17       5.4521500       0.4535271       5.3858354
 Cl2        18  -13 -1  2   17       2.2258800       0.2521541       0.9771995
 Cl2        19    3  3  1   20       3.1864900      -0.2518280      -0.4280540
 Cl2        20  -19  3  1   20       1.1442700       0.0615893       0.0485637
 Cl2        21  -19  3  1   20       0.4203770       1.0601843       0.3944761
 Cl2        22    3 -1  2   21       3.1864900      -0.0142993      -0.0867753
 Cl2        23  -22 -1  2   21       1.1442700       0.3235723       0.5458485
 Cl2        24  -22 -1  2   21       0.4203770       0.7435078       0.3587354
 Cl2        25    1  1  1   24       0.1426570       1.0000000       0.1654360
 Cl2        26    1 -1  2   25       0.1426570       1.0000000       0.1249702
 Cl2        27    1  0  3   28       0.7500000       1.0000000       0.9948708
 H3          1    3  0  1   34      18.7311370       0.0334946       0.2149354
 H3          2   -1  0  1   34       2.8253944       0.2347270       0.3645712
 H3          3   -1  0  1   34       0.6401217       0.8137573       0.4150514
 H3          4    1  0  1   35       0.1612778       1.0000000       0.1813806
 H3          5    1  0  2   36       1.1000000       1.0000000       1.6057611
 H4          1    3  0  1   39      18.7311370       0.0334946       0.2149354
 H4          2   -1  0  1   39       2.8253944       0.2347270       0.3645712
 H4          3   -1  0  1   39       0.6401217       0.8137573       0.4150514
 H4          4    1  0  1   40       0.1612778       1.0000000       0.1813806
 H4          5    1  0  2   41       1.1000000       1.0000000       1.6057611
 H5          1    3  0  1   44      18.7311370       0.0334946       0.2149354
 H5          2   -1  0  1   44       2.8253944       0.2347270       0.3645712
 H5          3   -1  0  1   44       0.6401217       0.8137573       0.4150514
 H5          4    1  0  1   45       0.1612778       1.0000000       0.1813806
 H5          5    1  0  2   46       1.1000000       1.0000000       1.6057611
  
  
  Gaussian Functions - Normalized coefficients
  
             s
             h    t
             e    y
             l    p    f
  atom       l    e    n          z          rcoef        rmfac     rcoef*rmfac
--------    ---  ---  ---     ---------    ----------   ----------  -----------
 C1          1    S    1    3047.524880     0.536345     1.000000     0.536345
 C1          2    S    1     457.369518     0.989452     1.000000     0.989452
 C1          3    S    1     103.948685     1.597283     1.000000     1.597283
 C1          4    S    1      29.210155     2.079187     1.000000     2.079187
 C1          5    S    1       9.286663     1.774174     1.000000     1.774174
 C1          6    S    1       3.163927     0.612580     1.000000     0.612580
 C1          7    S    2       7.868272    -0.399556     1.000000    -0.399556
 C1          8    S    2       1.881289    -0.184155     1.000000    -0.184155
 C1          9    S    2       0.544249     0.516390     1.000000     0.516390
 C1         10    X    3       7.868272     1.296082     1.000000     1.296082
                  Y    4                                 1.000000     1.296082
                  Z    5                                 1.000000     1.296082
 C1         11    X    3       1.881289     0.993754     1.000000     0.993754
                  Y    4                                 1.000000     0.993754
                  Z    5                                 1.000000     0.993754
 C1         12    X    3       0.544249     0.495953     1.000000     0.495953
                  Y    4                                 1.000000     0.495953
                  Z    5                                 1.000000     0.495953
 C1         13    S    6       0.168714     0.187618     1.000000     0.187618
 C1         14    X    7       0.168714     0.154128     1.000000     0.154128
                  Y    8                                 1.000000     0.154128
                  Z    9                                 1.000000     0.154128
 C1         15   XX   10       0.800000     1.113825     1.000000     1.113825
                 YY   11                                 1.000000     1.113825
                 ZZ   12                                 1.000000     1.113825
                 XY   13                                 1.732051     1.929201
                 XZ   14                                 1.732051     1.929201
                 YZ   15                                 1.732051     1.929201
 Cl2         1    S   16   25180.100000     2.611296     1.000000     2.611296
 Cl2         2    S   16    3780.350000     4.822217     1.000000     4.822217
 Cl2         3    S   16     860.474000     7.823932     1.000000     7.823932
 Cl2         4    S   16     242.145000    10.388253     1.000000    10.388253
 Cl2         5    S   16      77.334900     8.977789     1.000000     8.977789
 Cl2         6    S   16      26.247000     2.808761     1.000000     2.808761
 Cl2         7    S   17     491.765000    -0.170987     1.000000    -0.170987
 Cl2         8    S   17     116.984000    -0.778641     1.000000    -0.778641
 Cl2         9    S   17      37.415300    -1.213271     1.000000    -1.213271
 Cl2        10    S   17      13.783400     0.229508     1.000000     0.229508
 Cl2        11    S   17       5.452150     1.498690     1.000000     1.498690
 Cl2        12    S   17       2.225880     0.604202     1.000000     0.604202
 Cl2        13    X   18     491.765000    13.168757     1.000000    13.168757
                  Y   19                                 1.000000    13.168757
                  Z   20                                 1.000000    13.168757
 Cl2        14    X   18     116.984000    16.626258     1.000000    16.626258
                  Y   19                                 1.000000    16.626258
                  Z   20                                 1.000000    16.626258
 Cl2        15    X   18      37.415300    17.131445     1.000000    17.131445
                  Y   19                                 1.000000    17.131445
                  Z   20                                 1.000000    17.131445
 Cl2        16    X   18      13.783400    12.414939     1.000000    12.414939
                  Y   19                                 1.000000    12.414939
                  Z   20                                 1.000000    12.414939
 Cl2        17    X   18       5.452150     5.385835     1.000000     5.385835
                  Y   19                                 1.000000     5.385835
                  Z   20                                 1.000000     5.385835
 Cl2        18    X   18       2.225880     0.977199     1.000000     0.977199
                  Y   19                                 1.000000     0.977199
                  Z   20                                 1.000000     0.977199
 Cl2        19    S   21       3.186490    -0.428054     1.000000    -0.428054
 Cl2        20    S   21       1.144270     0.048564     1.000000     0.048564
 Cl2        21    S   21       0.420377     0.394476     1.000000     0.394476
 Cl2        22    X   22       3.186490    -0.086775     1.000000    -0.086775
                  Y   23                                 1.000000    -0.086775
                  Z   24                                 1.000000    -0.086775
 Cl2        23    X   22       1.144270     0.545848     1.000000     0.545848
                  Y   23                                 1.000000     0.545848
                  Z   24                                 1.000000     0.545848
 Cl2        24    X   22       0.420377     0.358735     1.000000     0.358735
                  Y   23                                 1.000000     0.358735
                  Z   24                                 1.000000     0.358735
 Cl2        25    S   25       0.142657     0.165436     1.000000     0.165436
 Cl2        26    X   26       0.142657     0.124970     1.000000     0.124970
                  Y   27                                 1.000000     0.124970
                  Z   28                                 1.000000     0.124970
 Cl2        27   XX   29       0.750000     0.994871     1.000000     0.994871
                 YY   30                                 1.000000     0.994871
                 ZZ   31                                 1.000000     0.994871
                 XY   32                                 1.732051     1.723167
                 XZ   33                                 1.732051     1.723167
                 YZ   34                                 1.732051     1.723167
 H3          1    S   35      18.731137     0.214935     1.000000     0.214935
 H3          2    S   35       2.825394     0.364571     1.000000     0.364571
 H3          3    S   35       0.640122     0.415051     1.000000     0.415051
 H3          4    S   36       0.161278     0.181381     1.000000     0.181381
 H3          5    X   37       1.100000     1.605761     1.000000     1.605761
                  Y   38                                 1.000000     1.605761
                  Z   39                                 1.000000     1.605761
 H4          1    S   40      18.731137     0.214935     1.000000     0.214935
 H4          2    S   40       2.825394     0.364571     1.000000     0.364571
 H4          3    S   40       0.640122     0.415051     1.000000     0.415051
 H4          4    S   41       0.161278     0.181381     1.000000     0.181381
 H4          5    X   42       1.100000     1.605761     1.000000     1.605761
                  Y   43                                 1.000000     1.605761
                  Z   44                                 1.000000     1.605761
 H5          1    S   45      18.731137     0.214935     1.000000     0.214935
 H5          2    S   45       2.825394     0.364571     1.000000     0.364571
 H5          3    S   45       0.640122     0.415051     1.000000     0.415051
 H5          4    S   46       0.161278     0.181381     1.000000     0.181381
 H5          5    X   47       1.100000     1.605761     1.000000     1.605761
                  Y   48                                 1.000000     1.605761
                  Z   49                                 1.000000     1.605761
  
  Effective Core Potential 
  
  Atom      Electrons represented by ECP
 C1                     0
 Cl2                    0
 H3                     0
 H4                     0
 H5                     0
  
  
 Input geometry:
                                   angstroms
  atom               x                 y                 z
  C1           -0.8418050000      0.7755600000      2.5492930000 
  Cl2          -0.8530460000      1.8602200000      1.5132490000 
  H3            0.0264640000      0.8995500000      3.1964670000 
  H4           -1.7512950000      0.8340770000      3.1472100000 
  H5           -0.7924050000     -0.1962520000      2.0581300000 
   
  principal moments of inertia:
        amu*angstrom^2:        3.19192       27.92506       27.92506
                g*cm^2: 5.30031366E-40 4.63706456E-39 4.63706494E-39
   
  rotational constants:
               cm^(-1):     5.28133806     0.60367389     0.60367385
                   GHz:   158.33053171    18.09768807    18.09768662
   
  Molecular weight:      49.99 amu
   
  Stoichiometry: CH3Cl
  Molecular Point Group: Cs      
	Molecule translated to center of mass 
	Molecule reoriented along symmetry axes
  Point Group used: Cs
  
  
 Symmetrized geometry:
                                   angstroms
  atom               x                 y                 z
  C1            0.5004081970      0.8970930171      0.0000000000 
  Cl2          -0.2303128487     -0.4128869824      0.0000000000 
  H3           -0.2196611761      1.7153832228      0.0000000000 
  H4            1.1263154205      0.9645829645      0.8898234553 
  H5            1.1263154205      0.9645829645     -0.8898234553 
   
  nuclear repulsion energy.......      58.295376758 hartrees
  Plot box parameters (in Angstoms):
   x min,max:          -2.579313    3.420687
   y min,max:          -2.761887    3.638113
   z min,max:          -2.806823    3.193177
   plot resolution:     2.500000
   points:    15   16   15
  
 
 Non-default options chosen:
   Highest accuracy cutoffs used in SCF
   Electrostatic potential fit to point charges on atomic centers
   Electron density computed on grid number  -7
  
 Non-default print settings:
      1=  2 102=  8
  
  end of program pre
   
   
  start of program onee
  smallest eigenvalue of S:    1.029E-02
  number of canonical orbitals.....           49
  end of program onee
   
   
  start of program hfig
  initial wavefunction generated automatically from atomic wavefunctions
 
  Irreducible     Total no   No of occupied orbitals 
  representation  orbitals   Shell_1  Shell_2    ...
  Ap                34         10
  App               15          3
  ------------------------
  Orbital occupation/shell    1.000
 
  end of program hfig
   
   
  start of program probe
  end of program probe
   
   
  start of program grid
   
  number of gridpoints: 
     atom         C1       Cl2        H3        H4        H5     total
  grid # 1        46       400        66       111         0       623
  grid # 2       153       400       261       444         0      1258
  grid # 3         5       898       690      1280         0      2873
  grid # 4        39      1187       738       888       748      3600
   
  Sorting grid blocks by size.
  end of program grid
   
   
  start of program rwr
  end of program rwr
   
   
  start of program scf
 number of electrons..........         26
 number of alpha electrons....         13
 number of beta electrons.....         13
 number of orbitals, total....         49
 number of doubly-occ'd orbs..         13
 number of open shell orbs....          0
 number of occupied orbitals..         13
 number of virtual orbitals...         36
 number of hamiltonians.......          1
 number of shells.............          1
 SCF type: HF
  
       i  u  d  i  g                   
       t  p  i  c  r                                 RMS    maximum
       e  d  i  u  i                       energy  density   DIIS  
       r  t  s  t  d       total energy    change  change    error 
  
etot   1  N  N  1  U    -498.68486258090           1.3E-02  2.2E-01
etot   2  N  Y  1  U    -498.97660850676  2.9E-01  4.6E-03  7.3E-02
etot   3  N  Y  1  U    -499.03692755594  6.0E-02  1.5E-03  1.9E-02
etot   4  N  Y  1  U    -499.04059538435  3.7E-03  4.1E-04  3.0E-03
etot   5  N  Y  1  U    -499.04072548399  1.3E-04  5.2E-05  2.6E-04
etot   6  N  N  1  U    -499.04072734581  1.9E-06  0.0E+00  0.0E+00
  
  
 Energy components, in hartrees:
   (A)  Nuclear repulsion............      58.29537675806
   (E)  Total one-electron terms.....    -803.67256329081
   (I)  Total two-electron terms.....     246.33645918695
   (L)  Electronic energy............    -557.33610410386  (E+I)
   (N)  Total energy.................    -499.04072734581  (A+L)
  
 SCFE: SCF energy: HF      -499.04072734581 hartrees   iterations:   6
  
 
 HOMO energy:    -0.41428
 LUMO energy:     0.23201
 
  Orbital energies/symmetry label: 
 -104.80500 Ap       -11.26406 Ap       -10.54788 Ap        -8.01828 Ap     
   -8.01335 App       -8.01335 Ap        -1.22980 Ap        -0.88392 Ap     
   -0.64745 Ap        -0.64744 App       -0.60073 Ap        -0.41428 App    
   -0.41428 Ap         0.23201 Ap         0.28200 App        0.28211 Ap     
    0.32337 Ap         0.53683 Ap         0.61443 Ap         0.64807 Ap     
    0.64807 App        0.75189 App        0.75192 Ap     
 
  end of program scf
   
   
  start of program ch
  gridpoints used for charge fit         2791
    out of a possible maximum of         2873
  
   Electrostatic potential fitting constrained to reproduce
     total charge:                yes
     dipole moment:               no 
     traceless quadrupole moment: no 
     traceless octapole moment:   no 
  
  Atomic charges from electrostatic potential: 
   
 Atom       C1           Cl2          H3           H4           H5      
 Charge   -0.06719     -0.15529      0.07417      0.07416      0.07416
  
  sum of atomic charges:     0.000000
   
 RMS Error   1.89E-03 hartrees
 
  end of program ch
   
   
  start of program elden
  
  Calculating electrostatic potential in units of kcal/mol
  File written:
    CH3Cl_6-31G++_potential.plt
 
  Calculating orbital amplitude...
  Files written:
    CH3Cl_6-31G++_MO_13.plt
    CH3Cl_6-31G++_MO_14.plt
 
  Calculating electron density...
  charge density evaluated on         3600  gridpoints
  File written:
    CH3Cl_6-31G++_density.plt
  
  end of program elden
   
   
  start of program post
  ***************************************** 
 
 Occupied + virtual Orbitals- final wvfn
 
  ***************************************** 
   
   
                              1         2         3         4         5
  eigenvalues-           -104.80500 -11.26406 -10.54788  -8.01828  -8.01335
    1 C1               S   -0.00002   0.99561   0.00082  -0.00051   0.00000
    2 C1               S   -0.00007   0.02921  -0.00040   0.00069   0.00000
    3 C1               X   -0.00001  -0.00067  -0.00026   0.00048   0.00000
    4 C1               Y   -0.00002  -0.00120  -0.00048   0.00086   0.00000
    5 C1               Z    0.00000   0.00000   0.00000   0.00000   0.00018
    6 C1               S   -0.00016  -0.01510   0.00063  -0.00442   0.00000
    7 C1               X   -0.00006   0.00076   0.00031   0.00075   0.00000
    8 C1               Y   -0.00010   0.00136   0.00055   0.00135   0.00000
    9 C1               Z    0.00000   0.00000   0.00000   0.00000   0.00059
   10 C1              XX    0.00001  -0.00192   0.00029  -0.00028   0.00000
   11 C1              YY    0.00013  -0.00171   0.00050  -0.00051   0.00000
   12 C1              ZZ   -0.00004  -0.00202   0.00020  -0.00017   0.00000
   13 C1              XY    0.00011   0.00020   0.00020  -0.00022   0.00000
   14 C1              XZ    0.00000   0.00000   0.00000   0.00000  -0.00011
   15 C1              YZ    0.00000   0.00000   0.00000   0.00000  -0.00041
   16 Cl2              S   -0.99611  -0.00015   0.28668   0.00198   0.00000
   17 Cl2              S   -0.01467   0.00049  -1.03030  -0.00737   0.00000
   18 Cl2              X   -0.00002   0.00003  -0.00283   0.48347   0.00000
   19 Cl2              Y   -0.00004   0.00005  -0.00508   0.86675   0.00000
   20 Cl2              Z    0.00000   0.00000   0.00000   0.00000  -0.99343
   21 Cl2              S    0.01784   0.00047  -0.02737   0.00314   0.00000
   22 Cl2              X   -0.00001  -0.00006  -0.00094   0.01175   0.00000
   23 Cl2              Y   -0.00001  -0.00011  -0.00168   0.02106   0.00000
   24 Cl2              Z    0.00000   0.00000   0.00000   0.00000  -0.02079
   25 Cl2              S   -0.00154   0.00396   0.00689   0.00172   0.00000
   26 Cl2              X   -0.00005   0.00106   0.00067  -0.00213   0.00000
   27 Cl2              Y   -0.00008   0.00190   0.00120  -0.00381   0.00000
   28 Cl2              Z    0.00000   0.00000   0.00000   0.00000   0.00466
   29 Cl2             XX   -0.00632  -0.00025   0.00187  -0.00066   0.00000
   30 Cl2             YY   -0.00636  -0.00056   0.00129   0.00073   0.00000
   31 Cl2             ZZ   -0.00630  -0.00012   0.00213  -0.00129   0.00000
   32 Cl2             XY   -0.00004  -0.00029  -0.00054   0.00130   0.00000
   33 Cl2             XZ    0.00000   0.00000   0.00000   0.00000  -0.00032
   34 Cl2             YZ    0.00000   0.00000   0.00000   0.00000  -0.00060
   35 H3               S    0.00004   0.00018  -0.00010   0.00048   0.00000
   36 H3               S    0.00012   0.00219  -0.00087   0.00098   0.00000
   37 H3               X    0.00001  -0.00008  -0.00002  -0.00002   0.00000
   38 H3               Y   -0.00001   0.00006   0.00021  -0.00034   0.00000
   39 H3               Z    0.00000   0.00000   0.00000   0.00000  -0.00009
   40 H4               S    0.00004   0.00018  -0.00010   0.00048  -0.00005
   41 H4               S    0.00012   0.00219  -0.00088   0.00098  -0.00093
   42 H4               X   -0.00001   0.00005   0.00014  -0.00022   0.00012
   43 H4               Y    0.00000  -0.00001   0.00012  -0.00023   0.00013
   44 H4               Z   -0.00002   0.00009   0.00011  -0.00013  -0.00002
   45 H5               S    0.00004   0.00018  -0.00010   0.00048   0.00005
   46 H5               S    0.00012   0.00219  -0.00088   0.00098   0.00093
   47 H5               X   -0.00001   0.00005   0.00014  -0.00022  -0.00012
   48 H5               Y    0.00000  -0.00001   0.00012  -0.00023  -0.00013
   49 H5               Z    0.00002  -0.00009  -0.00011   0.00013  -0.00002
   
                              6         7         8         9        10
  eigenvalues-             -8.01335  -1.22980  -0.88392  -0.64745  -0.64744
    1 C1               S    0.00000   0.12717   0.14921   0.00001   0.00000
    2 C1               S    0.00000  -0.24014  -0.28360   0.00002   0.00000
    3 C1               X    0.00016   0.06741  -0.06010   0.34891   0.00000
    4 C1               Y   -0.00009   0.12086  -0.10775  -0.19463   0.00000
    5 C1               Z    0.00000   0.00000   0.00000   0.00000   0.39952
    6 C1               S    0.00000  -0.16434  -0.34385  -0.00016   0.00000
    7 C1               X    0.00052   0.00784  -0.00543   0.17972   0.00000
    8 C1               Y   -0.00029   0.01405  -0.00972  -0.10020   0.00000
    9 C1               Z    0.00000   0.00000   0.00000   0.00000   0.20580
   10 C1              XX   -0.00037   0.00181  -0.00200  -0.01942   0.00000
   11 C1              YY    0.00028  -0.01443   0.00824   0.00145   0.00000
   12 C1              ZZ    0.00009   0.00914  -0.00663   0.01799   0.00000
   13 C1              XY   -0.00017  -0.01518   0.00957   0.00477   0.00000
   14 C1              XZ    0.00000   0.00000   0.00000   0.00000   0.01437
   15 C1              YZ    0.00000   0.00000   0.00000   0.00000  -0.01687
   16 Cl2              S    0.00000  -0.06401   0.04676   0.00000   0.00000
   17 Cl2              S    0.00000   0.29100  -0.21495   0.00000   0.00000
   18 Cl2              X   -0.86759   0.03613   0.03184  -0.11556   0.00000
   19 Cl2              Y    0.48394   0.06477   0.05708   0.06446   0.00000
   20 Cl2              Z    0.00000   0.00000   0.00000   0.00000  -0.13232
   21 Cl2              S    0.00000  -0.55863   0.43347  -0.00001   0.00000
   22 Cl2              X   -0.01816  -0.07904  -0.07576   0.29096   0.00000
   23 Cl2              Y    0.01013  -0.14170  -0.13582  -0.16228   0.00000
   24 Cl2              Z    0.00000   0.00000   0.00000   0.00000   0.33315
   25 Cl2              S    0.00000  -0.17765   0.30832   0.00009   0.00000
   26 Cl2              X    0.00407  -0.00096   0.00034   0.10065   0.00000
   27 Cl2              Y   -0.00227  -0.00173   0.00060  -0.05607   0.00000
   28 Cl2              Z    0.00000   0.00000   0.00000   0.00000   0.11522
   29 Cl2             XX   -0.00051   0.00054   0.00185   0.02894   0.00000
   30 Cl2             YY    0.00050  -0.03036  -0.01548  -0.03042   0.00000
   31 Cl2             ZZ    0.00001   0.01450   0.00969   0.00147   0.00000
   32 Cl2             XY   -0.00035  -0.02889  -0.01622   0.02217   0.00000
   33 Cl2             XZ    0.00000   0.00000   0.00000   0.00000   0.02137
   34 Cl2             YZ    0.00000   0.00000   0.00000   0.00000   0.03480
   35 H3               S    0.00005  -0.05463  -0.13423  -0.22115   0.00000
   36 H3               S    0.00107  -0.00350  -0.05648  -0.14160   0.00000
   37 H3               X   -0.00009  -0.00361  -0.00842  -0.00544   0.00000
   38 H3               Y   -0.00018   0.00684   0.00777   0.01066   0.00000
   39 H3               Z    0.00000   0.00000   0.00000   0.00000   0.00485
   40 H4               S   -0.00003  -0.05463  -0.13423   0.11058   0.19153
   41 H4               S   -0.00054  -0.00349  -0.05646   0.07082   0.12261
   42 H4               X   -0.00001   0.00488   0.00617  -0.00061  -0.00840
   43 H4               Y    0.00012   0.00210  -0.00037  -0.00347  -0.00191
   44 H4               Z    0.00004   0.00561   0.00964  -0.00641  -0.00624
   45 H5               S   -0.00003  -0.05463  -0.13423   0.11058  -0.19153
   46 H5               S   -0.00054  -0.00349  -0.05646   0.07082  -0.12261
   47 H5               X   -0.00001   0.00488   0.00617  -0.00061   0.00840
   48 H5               Y    0.00012   0.00210  -0.00037  -0.00347   0.00191
   49 H5               Z   -0.00004  -0.00561  -0.00964   0.00641  -0.00624
   
                             11        12        13        14        15
  eigenvalues-             -0.60073  -0.41428  -0.41428   0.23201   0.28200
    1 C1               S   -0.00086   0.00000   0.00000   0.15342   0.00000
    2 C1               S   -0.00829   0.00000   0.00002  -0.11392   0.00000
    3 C1               X    0.18615   0.00000   0.18126  -0.00794   0.00000
    4 C1               Y    0.33372   0.00000  -0.10110  -0.01389   0.00000
    5 C1               Z    0.00000   0.20756   0.00000   0.00000  -0.31660
    6 C1               S   -0.03086   0.00000  -0.00007  -2.98168   0.00000
    7 C1               X    0.08378   0.00000   0.10607   0.01965   0.00000
    8 C1               Y    0.15020   0.00000  -0.05912   0.03801   0.00000
    9 C1               Z    0.00000   0.12142   0.00000   0.00000  -1.54337
   10 C1              XX    0.00427   0.00000   0.01070   0.01175   0.00000
   11 C1              YY   -0.02347   0.00000  -0.02518   0.00715   0.00000
   12 C1              ZZ    0.01679   0.00000   0.01450   0.01380   0.00000
   13 C1              XY   -0.02593   0.00000   0.02262  -0.00431   0.00000
   14 C1              XZ    0.00000   0.02899   0.00000   0.00000   0.02121
   15 C1              YZ    0.00000   0.01763   0.00000   0.00000   0.01465
   16 Cl2              S    0.01736   0.00000   0.00000  -0.00049   0.00000
   17 Cl2              S   -0.08579   0.00000   0.00000  -0.03168   0.00000
   18 Cl2              X    0.10856   0.00000   0.21835  -0.02164   0.00000
   19 Cl2              Y    0.19462   0.00000  -0.12180  -0.03879   0.00000
   20 Cl2              Z    0.00000   0.25003   0.00000   0.00000  -0.00018
   21 Cl2              S    0.15734   0.00000   0.00000  -0.09515   0.00000
   22 Cl2              X   -0.27008   0.00000  -0.57200   0.05588   0.00000
   23 Cl2              Y   -0.48420   0.00000   0.31907   0.10015   0.00000
   24 Cl2              Z    0.00000  -0.65498   0.00000   0.00000  -0.01719
   25 Cl2              S    0.27791   0.00000   0.00005   0.96242   0.00000
   26 Cl2              X   -0.06610   0.00000  -0.36223   0.41943   0.00000
   27 Cl2              Y   -0.11851   0.00000   0.20209   0.75129   0.00000
   28 Cl2              Z    0.00000  -0.41477   0.00000   0.00000   0.41383
   29 Cl2             XX    0.00588   0.00000  -0.00006  -0.00327   0.00000
   30 Cl2             YY   -0.04356   0.00000  -0.00319  -0.06952   0.00000
   31 Cl2             ZZ    0.02821   0.00000   0.00326   0.02676   0.00000
   32 Cl2             XY   -0.04623   0.00000   0.00333  -0.06203   0.00000
   33 Cl2             XZ    0.00000   0.00489   0.00000   0.00000  -0.01247
   34 Cl2             YZ    0.00000   0.00103   0.00000   0.00000  -0.09136
   35 H3               S    0.08792   0.00000  -0.17488   0.00568   0.00000
   36 H3               S    0.07509   0.00000  -0.21423   0.99453   0.00000
   37 H3               X    0.00628   0.00000  -0.00444  -0.00101   0.00000
   38 H3               Y    0.00100   0.00000   0.00411  -0.00325   0.00000
   39 H3               Z    0.00000   0.00383   0.00000   0.00000  -0.00395
   40 H4               S    0.08793   0.15146   0.08744   0.00574   0.06844
   41 H4               S    0.07510   0.18553   0.10711   0.99683   1.59336
   42 H4               X   -0.00026  -0.00427   0.00088  -0.00195  -0.00198
   43 H4               Y    0.00466   0.00097  -0.00131  -0.00274  -0.00248
   44 H4               Z   -0.00433  -0.00345  -0.00421  -0.00063  -0.00486
   45 H5               S    0.08793  -0.15146   0.08744   0.00574  -0.06844
   46 H5               S    0.07510  -0.18553   0.10711   0.99683  -1.59336
   47 H5               X   -0.00026   0.00427   0.00088  -0.00195   0.00198
   48 H5               Y    0.00466  -0.00097  -0.00131  -0.00274   0.00248
   49 H5               Z    0.00433  -0.00345   0.00421   0.00063  -0.00486
   
                             16        17        18        19        20
  eigenvalues-              0.28211   0.32337   0.53683   0.61443   0.64807
    1 C1               S    0.00010  -0.01976   0.04447  -0.01404  -0.00001
    2 C1               S   -0.00029   0.03442   0.05061   0.02223  -0.00009
    3 C1               X    0.27665  -0.16708  -0.18891   0.02216   0.01579
    4 C1               Y   -0.15429  -0.29951  -0.33869   0.03982  -0.00886
    5 C1               Z    0.00000   0.00000   0.00000   0.00000   0.00000
    6 C1               S   -0.00166   0.58019  -0.22213   0.22397   0.00029
    7 C1               X    1.34755  -0.82576   0.27782  -0.53104   0.08433
    8 C1               Y   -0.75151  -1.48092   0.49799  -0.95221  -0.04724
    9 C1               Z    0.00000   0.00000   0.00000   0.00000   0.00000
   10 C1              XX   -0.00952   0.00014  -0.00345   0.01156   0.04365
   11 C1              YY    0.01937  -0.00663   0.04985  -0.02907  -0.02691
   12 C1              ZZ   -0.00991   0.00320  -0.02751   0.02992  -0.01680
   13 C1              XY   -0.01702  -0.00631   0.04981  -0.03800   0.01374
   14 C1              XZ    0.00000   0.00000   0.00000   0.00000   0.00000
   15 C1              YZ    0.00000   0.00000   0.00000   0.00000   0.00000
   16 Cl2              S    0.00000  -0.02760   0.04464   0.04157   0.00001
   17 Cl2              S   -0.00003   0.12546  -0.01776  -0.04332   0.00000
   18 Cl2              X    0.00012   0.03295  -0.03387   0.10908   0.25727
   19 Cl2              Y   -0.00011   0.05909  -0.06071   0.19566  -0.14345
   20 Cl2              Z    0.00000   0.00000   0.00000   0.00000   0.00000
   21 Cl2              S   -0.00008  -0.29757   0.97978   0.85755   0.00012
   22 Cl2              X    0.01513  -0.08050   0.16915  -0.42571  -1.01274
   23 Cl2              Y   -0.00835  -0.14438   0.30323  -0.76361   0.56470
   24 Cl2              Z    0.00000   0.00000   0.00000   0.00000   0.00000
   25 Cl2              S    0.00073  -1.62240  -1.17255  -2.00396  -0.00038
   26 Cl2              X   -0.36106  -0.82893  -0.30405   0.12243   1.12846
   27 Cl2              Y    0.20223  -1.48582  -0.54504   0.22002  -0.62943
   28 Cl2              Z    0.00000   0.00000   0.00000   0.00000   0.00000
   29 Cl2             XX    0.08552  -0.02695   0.07862   0.07271  -0.03964
   30 Cl2             YY   -0.05646   0.07128   0.22732   0.09234   0.05721
   31 Cl2             ZZ   -0.02908  -0.07135   0.01145   0.06381  -0.01753
   32 Cl2             XY    0.03076   0.09188   0.13903   0.01841  -0.04641
   33 Cl2             XZ    0.00000   0.00000   0.00000   0.00000   0.00000
   34 Cl2             YZ    0.00000   0.00000   0.00000   0.00000   0.00000
   35 H3               S    0.07902   0.02282  -0.09122   0.11855   0.03004
   36 H3               S    1.84014   0.67915   0.32809   0.18912   0.38933
   37 H3               X    0.00272  -0.00299   0.00470  -0.00889   0.00916
   38 H3               Y   -0.00564  -0.00687   0.01907  -0.00193   0.00895
   39 H3               Z    0.00000   0.00000   0.00000   0.00000   0.00000
   40 H4               S   -0.03952   0.02281  -0.09123   0.11852  -0.01500
   41 H4               S   -0.91922   0.67881   0.32804   0.18919  -0.19466
   42 H4               X    0.00459  -0.00394   0.01149   0.00006   0.00827
   43 H4               Y   -0.00050  -0.00633   0.01528  -0.00691  -0.01165
   44 H4               Z    0.00051  -0.00063   0.00449   0.00591  -0.00534
   45 H5               S   -0.03952   0.02281  -0.09123   0.11852  -0.01500
   46 H5               S   -0.91922   0.67881   0.32804   0.18919  -0.19466
   47 H5               X    0.00459  -0.00394   0.01149   0.00006   0.00827
   48 H5               Y   -0.00050  -0.00633   0.01528  -0.00691  -0.01165
   49 H5               Z   -0.00051   0.00063  -0.00449  -0.00591   0.00534
   
                             21        22        23        24        25
  eigenvalues-              0.64807   0.75189   0.75192   0.87992   1.00908
    1 C1               S    0.00000   0.00000   0.00000   0.00000   0.00000
    2 C1               S    0.00000   0.00000   0.00018   0.00000   0.00000
    3 C1               X    0.00000   0.00000   0.61800   0.00000   0.00000
    4 C1               Y    0.00000   0.00000  -0.34481   0.00000   0.00000
    5 C1               Z   -0.01809  -0.70781   0.00000   0.00000   0.00000
    6 C1               S    0.00000   0.00000  -0.00046   0.00000   0.00000
    7 C1               X    0.00000   0.00000  -1.33608   0.00000   0.00000
    8 C1               Y    0.00000   0.00000   0.74540   0.00000   0.00000
    9 C1               Z   -0.09653   1.52995   0.00000   0.00000   0.00000
   10 C1              XX    0.00000   0.00000  -0.01781   0.00000   0.00000
   11 C1              YY    0.00000   0.00000  -0.05825   0.00000   0.00000
   12 C1              ZZ    0.00000   0.00000   0.07610   0.00000   0.00000
   13 C1              XY    0.00000   0.00000   0.06604   0.00000   0.00000
   14 C1              XZ   -0.00347  -0.10327   0.00000   0.00000   0.00000
   15 C1              YZ   -0.04602  -0.00485   0.00000   0.00000   0.00000
   16 Cl2              S    0.00000   0.00000   0.00000   0.00000   0.00000
   17 Cl2              S    0.00000   0.00000   0.00001   0.00000   0.00000
   18 Cl2              X    0.00000   0.00000  -0.00817   0.00000   0.00000
   19 Cl2              Y    0.00000   0.00000   0.00460   0.00000   0.00000
   20 Cl2              Z   -0.29456   0.00939   0.00000   0.00000   0.00000
   21 Cl2              S    0.00000   0.00000  -0.00004   0.00000   0.00000
   22 Cl2              X    0.00000   0.00000   0.02205   0.00000   0.00000
   23 Cl2              Y    0.00000   0.00000  -0.01244   0.00000   0.00000
   24 Cl2              Z    1.15954  -0.02534   0.00000   0.00000   0.00000
   25 Cl2              S    0.00000   0.00000   0.00021   0.00000   0.00000
   26 Cl2              X    0.00000   0.00000   0.40647   0.00000   0.00000
   27 Cl2              Y    0.00000   0.00000  -0.22649   0.00000   0.00000
   28 Cl2              Z   -1.29217  -0.46527   0.00000   0.00000   0.00000
   29 Cl2             XX    0.00000   0.00000  -0.17566   0.00000   0.00000
   30 Cl2             YY    0.00000   0.00000   0.13332   0.00000   0.00000
   31 Cl2             ZZ    0.00000   0.00000   0.04234   0.00000   0.00000
   32 Cl2             XY    0.00000   0.00000  -0.08134   0.00000   0.00000
   33 Cl2             XZ    0.05274   0.05196   0.00000   0.00000   0.00000
   34 Cl2             YZ    0.05300   0.19371   0.00000   0.00000   0.00000
   35 H3               S    0.00000   0.00000  -0.51781   0.00000   0.00000
   36 H3               S    0.00000   0.00000  -0.12357   0.00000   0.00000
   37 H3               X    0.00000   0.00000  -0.02391   0.00000   0.00000
   38 H3               Y    0.00000   0.00000   0.03059   0.00000   0.00000
   39 H3               Z   -0.01598   0.02565   0.00000   0.00000   0.00000
   40 H4               S    0.02599  -0.44836   0.25891   0.00000   0.00000
   41 H4               S    0.33706  -0.10703   0.06184   0.00000   0.00000
   42 H4               X    0.00984   0.01020  -0.02829   0.00000   0.00000
   43 H4               Y    0.00668   0.00927   0.00715   0.00000   0.00000
   44 H4               Z   -0.00673   0.03325  -0.00439   0.00000   0.00000
   45 H5               S   -0.02599   0.44836   0.25891   0.00000   0.00000
   46 H5               S   -0.33706   0.10703   0.06184   0.00000   0.00000
   47 H5               X   -0.00984  -0.01020  -0.02829   0.00000   0.00000
   48 H5               Y   -0.00668  -0.00927   0.00715   0.00000   0.00000
   49 H5               Z   -0.00673   0.03325   0.00439   0.00000   0.00000
   
  
  end of program post
   
 Total cpu seconds     user:       2.200   user+sys:       2.760
  
 Total elapsed time:    20 seconds

Job CH3Cl_6-31G++ completed on chem-alpha at Tue Aug 21 07:28:37 2007
