Job CH3OH_6-31G++ started on chem-alpha at Tue Aug 21 07:25:55 2007
jobid: chem-alpha-0-466699bf

  +--------------------------------------------------------------------+
  |  Jaguar version 7.0, release 109                                   |
  |                                                                    |
  |  Copyright (c) 2007 Schrodinger,  LLC.                             |
  |  All Rights Reserved.                                              |
  |                                                                    |
  |  Use of this program should be acknowledged in publications as:    |
  |  Jaguar, version 7.0, Schrodinger, LLC, New York, NY, 2007.        |
  +--------------------------------------------------------------------+
   
  start of program pre
  Job name: CH3OH_6-31G++
  Executables used: /software/schrodinger/jaguar-v70109/bin/Linux-x86
  Temporary files : /var/tmp/hatuey/CH3OH_6-31G++
  Maestro file (input):  CH3OH_6-31G++.mae
  Maestro file (output): CH3OH_6-31G++.01.mae
  
  
  Dynamic memory assumed available (MB):     256
  
  basis set:             6-31g**         
  net molecular charge:    0
  multiplicity:            1
  
  Running on   4 processors
   
  number of basis functions....           50
  
  Basis set name for each atom
  
  Atom     Basis 
  C1       6-31g**         
  H2       6-31g**         
  H3       6-31g**         
  H4       6-31g**         
  O5       6-31g**         
  H6       6-31g**         
  
  Gaussian Functions - Shell information
  
             s    j
             h    c  i       n
             e    o  s       f
             l    n  h       s
  atom       l    t  l  l    h          z              coef            rcoef
--------    ---  --- -- --  ---     ----------      ----------       ---------
 C1          1    6  0  1    0    3047.5248800       0.0018347       0.5363452
 C1          2   -1  0  1    0     457.3695180       0.0140373       0.9894521
 C1          3   -1  0  1    0     103.9486850       0.0688426       1.5972825
 C1          4   -1  0  1    0      29.2101553       0.2321844       2.0791873
 C1          5   -1  0  1    0       9.2866630       0.4679413       1.7741743
 C1          6   -1  0  1    0       3.1639270       0.3623120       0.6125797
 C1          7    3  3  1    1       7.8682723      -0.1193324      -0.3995564
 C1          8   -7  3  1    1       1.8812885      -0.1608542      -0.1841552
 C1          9   -7  3  1    1       0.5442493       1.1434564       0.5163903
 C1         10    3 -1  2    2       7.8682723       0.0689991       1.2960822
 C1         11  -10 -1  2    2       1.8812885       0.3164240       0.9937536
 C1         12  -10 -1  2    2       0.5442493       0.7443083       0.4959527
 C1         13    1  1  1    5       0.1687145       1.0000000       0.1876179
 C1         14    1 -1  2    6       0.1687145       1.0000000       0.1541276
 C1         15    1  0  3    9       0.8000000       1.0000000       1.1138249
 H2          1    3  0  1   15      18.7311370       0.0334946       0.2149354
 H2          2   -1  0  1   15       2.8253944       0.2347270       0.3645712
 H2          3   -1  0  1   15       0.6401217       0.8137573       0.4150514
 H2          4    1  0  1   16       0.1612778       1.0000000       0.1813806
 H2          5    1  0  2   17       1.1000000       1.0000000       1.6057611
 H3          1    3  0  1   20      18.7311370       0.0334946       0.2149354
 H3          2   -1  0  1   20       2.8253944       0.2347270       0.3645712
 H3          3   -1  0  1   20       0.6401217       0.8137573       0.4150514
 H3          4    1  0  1   21       0.1612778       1.0000000       0.1813806
 H3          5    1  0  2   22       1.1000000       1.0000000       1.6057611
 H4          1    3  0  1   25      18.7311370       0.0334946       0.2149354
 H4          2   -1  0  1   25       2.8253944       0.2347270       0.3645712
 H4          3   -1  0  1   25       0.6401217       0.8137573       0.4150514
 H4          4    1  0  1   26       0.1612778       1.0000000       0.1813806
 H4          5    1  0  2   27       1.1000000       1.0000000       1.6057611
 O5          1    6  0  1   30    5484.6716600       0.0018311       0.8317237
 O5          2   -1  0  1   30     825.2349460       0.0139502       1.5308156
 O5          3   -1  0  1   30     188.0469580       0.0684451       2.4771485
 O5          4   -1  0  1   30      52.9645000       0.2327143       3.2562811
 O5          5   -1  0  1   30      16.8975704       0.4701929       2.7928934
 O5          6   -1  0  1   30       5.7996353       0.3585209       0.9549377
 O5          7    3  3  1   31      15.5396162      -0.1107775      -0.6179340
 O5          8   -7  3  1   31       3.5999336      -0.1480263      -0.2757209
 O5          9   -7  3  1   31       1.0137618       1.1307670       0.8142076
 O5         10    3 -1  2   32      15.5396162       0.0708743       3.1169443
 O5         11  -10 -1  2   32       3.5999336       0.3397528       2.4014375
 O5         12  -10 -1  2   32       1.0137618       0.7271586       1.0543604
 O5         13    1  1  1   35       0.2700058       1.0000000       0.2669562
 O5         14    1 -1  2   36       0.2700058       1.0000000       0.2774320
 O5         15    1  0  3   39       0.8000000       1.0000000       1.1138249
 H6          1    3  0  1   45      18.7311370       0.0334946       0.2149354
 H6          2   -1  0  1   45       2.8253944       0.2347270       0.3645712
 H6          3   -1  0  1   45       0.6401217       0.8137573       0.4150514
 H6          4    1  0  1   46       0.1612778       1.0000000       0.1813806
 H6          5    1  0  2   47       1.1000000       1.0000000       1.6057611
  
  
  Gaussian Functions - Normalized coefficients
  
             s
             h    t
             e    y
             l    p    f
  atom       l    e    n          z          rcoef        rmfac     rcoef*rmfac
--------    ---  ---  ---     ---------    ----------   ----------  -----------
 C1          1    S    1    3047.524880     0.536345     1.000000     0.536345
 C1          2    S    1     457.369518     0.989452     1.000000     0.989452
 C1          3    S    1     103.948685     1.597283     1.000000     1.597283
 C1          4    S    1      29.210155     2.079187     1.000000     2.079187
 C1          5    S    1       9.286663     1.774174     1.000000     1.774174
 C1          6    S    1       3.163927     0.612580     1.000000     0.612580
 C1          7    S    2       7.868272    -0.399556     1.000000    -0.399556
 C1          8    S    2       1.881289    -0.184155     1.000000    -0.184155
 C1          9    S    2       0.544249     0.516390     1.000000     0.516390
 C1         10    X    3       7.868272     1.296082     1.000000     1.296082
                  Y    4                                 1.000000     1.296082
                  Z    5                                 1.000000     1.296082
 C1         11    X    3       1.881289     0.993754     1.000000     0.993754
                  Y    4                                 1.000000     0.993754
                  Z    5                                 1.000000     0.993754
 C1         12    X    3       0.544249     0.495953     1.000000     0.495953
                  Y    4                                 1.000000     0.495953
                  Z    5                                 1.000000     0.495953
 C1         13    S    6       0.168714     0.187618     1.000000     0.187618
 C1         14    X    7       0.168714     0.154128     1.000000     0.154128
                  Y    8                                 1.000000     0.154128
                  Z    9                                 1.000000     0.154128
 C1         15   XX   10       0.800000     1.113825     1.000000     1.113825
                 YY   11                                 1.000000     1.113825
                 ZZ   12                                 1.000000     1.113825
                 XY   13                                 1.732051     1.929201
                 XZ   14                                 1.732051     1.929201
                 YZ   15                                 1.732051     1.929201
 H2          1    S   16      18.731137     0.214935     1.000000     0.214935
 H2          2    S   16       2.825394     0.364571     1.000000     0.364571
 H2          3    S   16       0.640122     0.415051     1.000000     0.415051
 H2          4    S   17       0.161278     0.181381     1.000000     0.181381
 H2          5    X   18       1.100000     1.605761     1.000000     1.605761
                  Y   19                                 1.000000     1.605761
                  Z   20                                 1.000000     1.605761
 H3          1    S   21      18.731137     0.214935     1.000000     0.214935
 H3          2    S   21       2.825394     0.364571     1.000000     0.364571
 H3          3    S   21       0.640122     0.415051     1.000000     0.415051
 H3          4    S   22       0.161278     0.181381     1.000000     0.181381
 H3          5    X   23       1.100000     1.605761     1.000000     1.605761
                  Y   24                                 1.000000     1.605761
                  Z   25                                 1.000000     1.605761
 H4          1    S   26      18.731137     0.214935     1.000000     0.214935
 H4          2    S   26       2.825394     0.364571     1.000000     0.364571
 H4          3    S   26       0.640122     0.415051     1.000000     0.415051
 H4          4    S   27       0.161278     0.181381     1.000000     0.181381
 H4          5    X   28       1.100000     1.605761     1.000000     1.605761
                  Y   29                                 1.000000     1.605761
                  Z   30                                 1.000000     1.605761
 O5          1    S   31    5484.671660     0.831724     1.000000     0.831724
 O5          2    S   31     825.234946     1.530816     1.000000     1.530816
 O5          3    S   31     188.046958     2.477149     1.000000     2.477149
 O5          4    S   31      52.964500     3.256281     1.000000     3.256281
 O5          5    S   31      16.897570     2.792893     1.000000     2.792893
 O5          6    S   31       5.799635     0.954938     1.000000     0.954938
 O5          7    S   32      15.539616    -0.617934     1.000000    -0.617934
 O5          8    S   32       3.599934    -0.275721     1.000000    -0.275721
 O5          9    S   32       1.013762     0.814208     1.000000     0.814208
 O5         10    X   33      15.539616     3.116944     1.000000     3.116944
                  Y   34                                 1.000000     3.116944
                  Z   35                                 1.000000     3.116944
 O5         11    X   33       3.599934     2.401438     1.000000     2.401438
                  Y   34                                 1.000000     2.401438
                  Z   35                                 1.000000     2.401438
 O5         12    X   33       1.013762     1.054360     1.000000     1.054360
                  Y   34                                 1.000000     1.054360
                  Z   35                                 1.000000     1.054360
 O5         13    S   36       0.270006     0.266956     1.000000     0.266956
 O5         14    X   37       0.270006     0.277432     1.000000     0.277432
                  Y   38                                 1.000000     0.277432
                  Z   39                                 1.000000     0.277432
 O5         15   XX   40       0.800000     1.113825     1.000000     1.113825
                 YY   41                                 1.000000     1.113825
                 ZZ   42                                 1.000000     1.113825
                 XY   43                                 1.732051     1.929201
                 XZ   44                                 1.732051     1.929201
                 YZ   45                                 1.732051     1.929201
 H6          1    S   46      18.731137     0.214935     1.000000     0.214935
 H6          2    S   46       2.825394     0.364571     1.000000     0.364571
 H6          3    S   46       0.640122     0.415051     1.000000     0.415051
 H6          4    S   47       0.161278     0.181381     1.000000     0.181381
 H6          5    X   48       1.100000     1.605761     1.000000     1.605761
                  Y   49                                 1.000000     1.605761
                  Z   50                                 1.000000     1.605761
  
  Effective Core Potential 
  
  Atom      Electrons represented by ECP
 C1                     0
 H2                     0
 H3                     0
 H4                     0
 O5                     0
 H6                     0
  
  
 Input geometry:
                                   angstroms
  atom               x                 y                 z
  C1           -1.3114490000      1.0186960000      0.0408900000 
  H2           -0.5461820000      1.5867900000      0.6087340000 
  H3           -1.4621680000      1.5089600000     -0.9453920000 
  H4           -2.2635010000      1.0289560000      0.6147550000 
  O5           -0.8690250000     -0.2960370000     -0.1363680000 
  H6           -1.5839790000     -0.7586910000     -0.6459290000 
   
  principal moments of inertia:
        amu*angstrom^2:        4.13651       19.85562       20.65967
                g*cm^2: 6.86884276E-40 3.29710330E-39 3.43061777E-39
   
  rotational constants:
               cm^(-1):     4.07532232     0.84901035     0.81596815
                   GHz:   122.17508966    25.45268993    24.46210965
   
  Molecular weight:      32.03 amu
   
  Stoichiometry: CH4O
  Molecular Point Group: C1      
  Point Group used: C1
  
  nuclear repulsion energy.......      40.341913054 hartrees
  Plot box parameters (in Angstoms):
   x min,max:          -4.180501    1.419499
   y min,max:          -2.675691    3.724309
   z min,max:          -2.862392    2.737608
   plot resolution:     2.500000
   points:    14   16   14
  
 
 Non-default options chosen:
   Highest accuracy cutoffs used in SCF
   Electrostatic potential fit to point charges on atomic centers
   Electron density computed on grid number  -7
  
 Non-default print settings:
      1=  2 102=  8
  
  end of program pre
   
   
  start of program onee
  smallest eigenvalue of S:    8.864E-03
  number of canonical orbitals.....           50
  end of program onee
   
   
  start of program hfig
  initial wavefunction generated automatically from atomic wavefunctions
 
  Irreducible     Total no   No of occupied orbitals 
  representation  orbitals   Shell_1  Shell_2    ...
  No Symm           50          9
  ------------------------
  Orbital occupation/shell    1.000
 
  end of program hfig
   
   
  start of program probe
  end of program probe
   
   
  start of program grid
   
  number of gridpoints: 
     atom         C1        H2        H3        H4        O5        H6     total
  grid # 1        77       113       111       111       115       115       642
  grid # 2       261       450       451       451       440       445      2498
  grid # 3         6      1332      1236      1236       856      1371      6037
  grid # 4        38       580       650       605       558       705      3136
   
  Sorting grid blocks by size.
  end of program grid
   
   
  start of program rwr
  end of program rwr
   
   
  start of program scf
 number of electrons..........         18
 number of alpha electrons....          9
 number of beta electrons.....          9
 number of orbitals, total....         50
 number of doubly-occ'd orbs..          9
 number of open shell orbs....          0
 number of occupied orbitals..          9
 number of virtual orbitals...         41
 number of hamiltonians.......          1
 number of shells.............          1
 SCF type: HF
  
       i  u  d  i  g                   
       t  p  i  c  r                                 RMS    maximum
       e  d  i  u  i                       energy  density   DIIS  
       r  t  s  t  d       total energy    change  change    error 
  
etot   1  N  N  1  U    -114.63848066522           9.7E-03  2.0E-01
etot   2  N  Y  1  U    -115.00446281649  3.7E-01  2.9E-03  4.3E-02
etot   3  N  Y  1  U    -115.03841640419  3.4E-02  1.1E-03  1.3E-02
etot   4  N  Y  1  U    -115.04204645054  3.6E-03  3.3E-04  2.6E-03
etot   5  N  Y  1  U    -115.04224126619  1.9E-04  1.2E-04  1.5E-03
etot   6  N  Y  1  U    -115.04226716160  2.6E-05  5.6E-05  3.4E-04
etot   7  N  N  1  U    -115.04227057166  3.4E-06  0.0E+00  0.0E+00
  
  
 Energy components, in hartrees:
   (A)  Nuclear repulsion............      40.34191305425
   (E)  Total one-electron terms.....    -236.92117258050
   (I)  Total two-electron terms.....      81.53698895459
   (L)  Electronic energy............    -155.38418362591  (E+I)
   (N)  Total energy.................    -115.04227057166  (A+L)
  
 SCFE: SCF energy: HF      -115.04227057166 hartrees   iterations:   7
  
 
 HOMO energy:    -0.43969
 LUMO energy:     0.21685
 
  Orbital energies: 
  -20.56138  -11.27642   -1.35330   -0.91170   -0.68016   -0.61811
   -0.59133   -0.49150   -0.43969    0.21685    0.27532    0.31891
    0.32280    0.38339    0.76962    0.77585    0.79100    1.00072
    1.08708
 
  end of program scf
   
   
  start of program ch
  gridpoints used for charge fit         5865
    out of a possible maximum of         6037
  
   Electrostatic potential fitting constrained to reproduce
     total charge:                yes
     dipole moment:               no 
     traceless quadrupole moment: no 
     traceless octapole moment:   no 
  
  Atomic charges from electrostatic potential: 
   
 Atom       C1           H2           H3           H4           O5      
 Charge    0.24969      0.04332     -0.02466     -0.02466     -0.65455
   
 Atom       H6      
 Charge    0.41085
  
  sum of atomic charges:     0.000000
   
 RMS Error   1.22E-03 hartrees
 
  end of program ch
   
   
  start of program elden
  
  Calculating electrostatic potential in units of kcal/mol
  File written:
    CH3OH_6-31G++_potential.plt
 
  Calculating orbital amplitude...
  Files written:
    CH3OH_6-31G++_MO_9.plt
    CH3OH_6-31G++_MO_10.plt
 
  Calculating electron density...
  charge density evaluated on         3136  gridpoints
  File written:
    CH3OH_6-31G++_density.plt
  
  end of program elden
   
   
  start of program post
  ***************************************** 
 
 Occupied + virtual Orbitals- final wvfn
 
  ***************************************** 
   
   
                              1         2         3         4         5
  eigenvalues-            -20.56138 -11.27642  -1.35330  -0.91170  -0.68016
    1 C1               S    0.00002   0.99583  -0.07294   0.17630   0.01918
    2 C1               S   -0.00028   0.02695   0.13608  -0.34726  -0.03173
    3 C1               X   -0.00014   0.00018   0.02808   0.00925   0.23168
    4 C1               Y    0.00033  -0.00073  -0.09792  -0.06147  -0.12659
    5 C1               Z    0.00003  -0.00013  -0.01570  -0.01416   0.08005
    6 C1               S   -0.00026  -0.01152   0.03936  -0.32338  -0.07185
    7 C1               X    0.00025   0.00016  -0.00584   0.01494   0.09866
    8 C1               Y    0.00003  -0.00038   0.00355  -0.02652  -0.03054
    9 C1               Z    0.00014  -0.00003  -0.00191  -0.00048   0.04127
   10 C1              XX    0.00003  -0.00155  -0.00689  -0.00235   0.00018
   11 C1              YY    0.00000  -0.00138   0.02113   0.00615   0.01601
   12 C1              ZZ    0.00001  -0.00155  -0.00889  -0.00146  -0.01373
   13 C1              XY    0.00001  -0.00002  -0.00997  -0.00187  -0.01502
   14 C1              XZ    0.00002   0.00001  -0.00129  -0.00112   0.00582
   15 C1              YZ    0.00000   0.00006   0.00590   0.00173   0.00417
   16 H2               S    0.00000   0.00000   0.02538  -0.14291   0.05426
   17 H2               S   -0.00002   0.00226   0.00759  -0.05418   0.03452
   18 H2               X    0.00000   0.00010  -0.00241   0.00937  -0.00030
   19 H2               Y   -0.00005   0.00009  -0.00301   0.00566  -0.00341
   20 H2               Z   -0.00002   0.00008  -0.00216   0.00655  -0.00121
   21 H3               S    0.00008   0.00001   0.02627  -0.13571  -0.10732
   22 H3               S    0.00013   0.00231   0.00403  -0.04643  -0.06900
   23 H3               X    0.00000  -0.00003   0.00088  -0.00161   0.00213
   24 H3               Y   -0.00005   0.00008  -0.00252   0.00483   0.00160
   25 H3               Z    0.00003  -0.00013   0.00365  -0.01118  -0.00550
   26 H4               S    0.00008   0.00001   0.02627  -0.13571  -0.10732
   27 H4               S    0.00013   0.00231   0.00403  -0.04643  -0.06900
   28 H4               X    0.00003  -0.00013   0.00389  -0.01056  -0.00323
   29 H4               Y   -0.00003   0.00002  -0.00072  -0.00053  -0.00161
   30 H4               Z   -0.00004   0.00007  -0.00220   0.00624   0.00493
   31 O5               S   -0.99469  -0.00015  -0.20284  -0.06404  -0.03922
   32 O5               S   -0.02117   0.00019   0.45472   0.14328   0.09200
   33 O5               X    0.00121  -0.00005  -0.06710  -0.00629   0.27180
   34 O5               Y   -0.00051   0.00012   0.04758  -0.18526   0.24350
   35 O5               Z    0.00046   0.00001  -0.01982  -0.06023   0.21452
   36 O5               S   -0.00376   0.00097   0.42810   0.20089   0.16035
   37 O5               X   -0.00044   0.00037  -0.03310  -0.00276   0.16521
   38 O5               Y    0.00043  -0.00019   0.03444  -0.08873   0.13835
   39 O5               Z   -0.00009   0.00013  -0.00641  -0.02872   0.12742
   40 O5              XX    0.00386  -0.00015   0.00606   0.00286  -0.01922
   41 O5              YY    0.00408  -0.00066   0.01407  -0.01406   0.01661
   42 O5              ZZ    0.00381   0.00003   0.00087   0.00370  -0.00205
   43 O5              XY   -0.00012   0.00024  -0.00562   0.01205  -0.00567
   44 O5              XZ    0.00000  -0.00007   0.00235   0.00450  -0.01591
   45 O5              YZ    0.00004  -0.00015   0.00240   0.00065   0.00133
   46 H6               S   -0.00022   0.00019   0.12452   0.10572  -0.21897
   47 H6               S    0.00039   0.00042   0.01307   0.03863  -0.12125
   48 H6               X    0.00022   0.00000   0.01522   0.01138  -0.01323
   49 H6               Y    0.00014   0.00025   0.01195   0.00355  -0.00822
   50 H6               Z    0.00015   0.00008   0.01149   0.00693  -0.00932
   
                              6         7         8         9        10
  eigenvalues-             -0.61811  -0.59133  -0.49150  -0.43969   0.21685
    1 C1               S    0.00000  -0.00121   0.00682   0.00000  -0.05520
    2 C1               S    0.00000   0.00011  -0.01893   0.00000   0.03198
    3 C1               X   -0.16101   0.10631  -0.29501   0.10716  -0.09141
    4 C1               Y   -0.09645   0.32408   0.03075   0.06419   0.13130
    5 C1               Z    0.31349   0.15431  -0.14206  -0.20865  -0.00656
    6 C1               S    0.00000   0.04689   0.00977   0.00000   0.99280
    7 C1               X   -0.06991   0.07979  -0.12780   0.04452  -0.26699
    8 C1               Y   -0.04187   0.12320  -0.00804   0.02666   0.48024
    9 C1               Z    0.13610   0.07887  -0.06811  -0.08668   0.01060
   10 C1              XX    0.01276   0.01352   0.00574  -0.01935  -0.01349
   11 C1              YY    0.00147  -0.02516  -0.01624   0.01303   0.00129
   12 C1              ZZ   -0.01423   0.00908   0.00903   0.00632  -0.00907
   13 C1              XY    0.00583   0.01929  -0.01695   0.00587  -0.00082
   14 C1              XZ   -0.01012   0.01154  -0.01447   0.01988  -0.00325
   15 C1              YZ   -0.00022  -0.00048  -0.02206  -0.02558   0.00303
   16 H2               S    0.00000   0.20261  -0.20653   0.00000   0.00094
   17 H2               S    0.00000   0.15029  -0.20263  -0.00001  -0.35295
   18 H2               X   -0.00237  -0.00768   0.00522   0.00206  -0.00344
   19 H2               Y   -0.00142  -0.00267   0.00607   0.00124   0.00530
   20 H2               Z    0.00461  -0.00477   0.00455  -0.00401  -0.00014
   21 H3               S   -0.17958  -0.00083   0.12788   0.17350  -0.00342
   22 H3               S   -0.14905   0.00320   0.13663   0.19590  -0.62940
   23 H3               X   -0.00369   0.00123  -0.00430   0.00252   0.00048
   24 H3               Y    0.00469   0.00401  -0.00306  -0.00196   0.00426
   25 H3               Z   -0.00710   0.00150   0.00531   0.00626   0.00088
   26 H4               S    0.17958  -0.00083   0.12789  -0.17349  -0.00342
   27 H4               S    0.14905   0.00321   0.13663  -0.19590  -0.62937
   28 H4               X    0.00871   0.00095   0.00210  -0.00673  -0.00003
   29 H4               Y   -0.00168   0.00385   0.00078  -0.00056   0.00396
   30 H4               Z   -0.00269   0.00204  -0.00715   0.00194   0.00188
   31 O5               S    0.00000  -0.02937  -0.04610   0.00000  -0.07700
   32 O5               S    0.00000   0.06815   0.10148   0.00000   0.05953
   33 O5               X   -0.15611   0.21645   0.35351  -0.23722  -0.16095
   34 O5               Y   -0.09352  -0.36523  -0.10740  -0.14210  -0.06462
   35 O5               Z    0.30395  -0.00120   0.14852   0.46186  -0.10255
   36 O5               S    0.00002   0.11644   0.21953  -0.00001   1.04040
   37 O5               X   -0.10454   0.14635   0.27256  -0.19588  -0.38486
   38 O5               Y   -0.06262  -0.24494  -0.08938  -0.11734  -0.14235
   39 O5               Z    0.20354  -0.00019   0.11248   0.38137  -0.24147
   40 O5              XX    0.01173  -0.00655  -0.01762   0.01283  -0.02616
   41 O5              YY   -0.00611  -0.01021  -0.00422  -0.00286  -0.03884
   42 O5              ZZ   -0.00563   0.00881   0.00110  -0.00996  -0.04159
   43 O5              XY   -0.00182   0.02531   0.00354   0.00168   0.00009
   44 O5              XZ   -0.01152  -0.00033  -0.01414  -0.01147   0.01320
   45 O5              YZ    0.01245   0.00684  -0.00255   0.00714   0.00344
   46 H6               S    0.00000   0.04288  -0.14388   0.00000  -0.07141
   47 H6               S    0.00000   0.04417  -0.11211   0.00000  -1.24355
   48 H6               X   -0.00476   0.00869  -0.00182  -0.00723  -0.00433
   49 H6               Y   -0.00285  -0.00887  -0.01039  -0.00433  -0.00626
   50 H6               Z    0.00926   0.00173  -0.00413   0.01407  -0.00415
   
                             11        12        13        14        15
  eigenvalues-              0.27532   0.31891   0.32280   0.38339   0.76962
    1 C1               S    0.13609   0.01471   0.00001   0.06505  -0.00574
    2 C1               S   -0.11762   0.00291  -0.00001  -0.03645   0.06242
    3 C1               X   -0.01126   0.28354   0.16384  -0.06464   0.64183
    4 C1               Y   -0.08185   0.09047   0.09811   0.17275   0.02365
    5 C1               Z   -0.03096   0.17361  -0.31874   0.01994   0.33733
    6 C1               S   -2.34463  -0.26265  -0.00013  -1.10977  -0.05154
    7 C1               X   -0.04216   1.17479   0.65306  -0.68366  -1.37436
    8 C1               Y   -0.25687   0.50813   0.39110   1.48053  -0.27741
    9 C1               Z   -0.10064   0.76033  -1.27045   0.10435  -0.79218
   10 C1              XX    0.00045  -0.00515   0.00414  -0.01008   0.03296
   11 C1              YY    0.01004   0.00357   0.00166   0.00430  -0.01563
   12 C1              ZZ    0.00421   0.00300  -0.00580  -0.01930  -0.02046
   13 C1              XY    0.00018  -0.00382   0.00303  -0.01258   0.04116
   14 C1              XZ   -0.00253  -0.00890  -0.00294   0.00273   0.06813
   15 C1              YZ    0.00195  -0.00349  -0.00209   0.00260   0.03713
   16 H2               S    0.00999  -0.06076  -0.00001  -0.04416   0.50078
   17 H2               S    1.25852  -1.79706  -0.00059   0.17020   0.32317
   18 H2               X   -0.00346   0.00288   0.00401  -0.00531  -0.02548
   19 H2               Y   -0.00026   0.00484   0.00241   0.00306  -0.02596
   20 H2               Z   -0.00186   0.00297  -0.00781  -0.00179  -0.02109
   21 H3               S    0.00238   0.02693  -0.03239  -0.06767  -0.23808
   22 H3               S    0.99264   0.95567  -1.61660  -0.16202  -0.14156
   23 H3               X    0.00147   0.00754   0.00375  -0.00511  -0.02870
   24 H3               Y   -0.00055   0.00086   0.00498   0.00652  -0.00214
   25 H3               Z    0.00234   0.00306  -0.00391   0.00363  -0.02504
   26 H4               S    0.00238   0.02691   0.03241  -0.06767  -0.23769
   27 H4               S    0.99256   0.95457   1.61730  -0.16200  -0.14124
   28 H4               X    0.00279   0.00672   0.00183  -0.00190  -0.03597
   29 H4               Y    0.00024   0.00037  -0.00164   0.00844  -0.00651
   30 H4               Z   -0.00024   0.00465  -0.00693  -0.00262  -0.01088
   31 O5               S   -0.05471  -0.01329  -0.00001  -0.05704  -0.00468
   32 O5               S    0.01713   0.00081   0.00000   0.03971   0.10540
   33 O5               X   -0.11752  -0.08110  -0.03473   0.01564   0.06586
   34 O5               Y    0.00900   0.03525  -0.02077   0.30253  -0.12601
   35 O5               Z   -0.05759  -0.03084   0.06754   0.10111  -0.00487
   36 O5               S    0.83662   0.25450   0.00009   0.99541  -0.05515
   37 O5               X   -0.28103  -0.26437  -0.11130  -0.01789   0.17526
   38 O5               Y    0.08516   0.06408  -0.06659   0.97870   0.04344
   39 O5               Z   -0.11815  -0.11617   0.21646   0.29192   0.10351
   40 O5              XX   -0.02606  -0.00794   0.00635  -0.03198   0.01576
   41 O5              YY   -0.04056  -0.00300   0.00361   0.00245   0.06460
   42 O5              ZZ   -0.03501  -0.00490  -0.00997  -0.03511   0.02157
   43 O5              XY   -0.00208   0.00782   0.00568  -0.02159  -0.02245
   44 O5              XZ    0.00584   0.00202  -0.00419  -0.00620  -0.01370
   45 O5              YZ   -0.00234   0.00554  -0.00501   0.00140   0.00176
   46 H6               S   -0.05497   0.01239   0.00000   0.03067  -0.11423
   47 H6               S   -0.78603  -0.05792  -0.00004   0.86122  -0.12195
   48 H6               X   -0.00230   0.00047  -0.00291   0.00591   0.00451
   49 H6               Y    0.00319  -0.00741  -0.00175   0.00659   0.03529
   50 H6               Z   -0.00020  -0.00204   0.00567   0.00506   0.01317
   
                             16        17        18        19        20
  eigenvalues-              0.77585   0.79100   1.00072   1.08708   1.10395
    1 C1               S    0.00000   0.03685   0.00371   0.00000   0.00000
    2 C1               S   -0.00005  -0.43760   0.01677   0.00007   0.00000
    3 C1               X   -0.32046  -0.18722  -0.42589   0.34329   0.00000
    4 C1               Y   -0.19177   0.94669   0.05536   0.20565   0.00000
    5 C1               Z    0.62316   0.19509  -0.20172  -0.66835   0.00000
    6 C1               S    0.00004   0.47673   0.03176  -0.00016   0.00000
    7 C1               X    0.75040   0.09317   0.83666  -0.60623   0.00000
    8 C1               Y    0.44921  -1.23241   0.08178  -0.36317   0.00000
    9 C1               Z   -1.45936  -0.33127   0.45490   1.18028   0.00000
   10 C1              XX    0.05951  -0.02620  -0.05541   0.16163   0.00000
   11 C1              YY    0.00226   0.04673   0.12283  -0.05447   0.00000
   12 C1              ZZ   -0.06176  -0.04553  -0.03955  -0.10716   0.00000
   13 C1              XY    0.02273  -0.03812   0.07485   0.00340   0.00000
   14 C1              XZ   -0.04862   0.00288   0.04291  -0.14991   0.00000
   15 C1              YZ    0.00674   0.01508   0.11367   0.12124   0.00000
   16 H2               S   -0.00021   0.13187   0.29202  -0.00002   0.00000
   17 H2               S   -0.00017   0.15477  -0.90068   0.00008   0.00000
   18 H2               X    0.01582  -0.02429   0.01121   0.01932   0.00000
   19 H2               Y    0.00948   0.00374   0.06477   0.01157   0.00000
   20 H2               Z   -0.03076  -0.01132   0.02569  -0.03762   0.00000
   21 H3               S   -0.42046   0.05384  -0.27899  -0.65005   0.00000
   22 H3               S   -0.35035  -0.01339   0.50736   1.38996   0.00000
   23 H3               X    0.01235  -0.00940  -0.00075   0.04224   0.00000
   24 H3               Y    0.02344   0.01783  -0.02614  -0.06086   0.00000
   25 H3               Z   -0.03662   0.01416   0.03657   0.07333   0.00000
   26 H4               S    0.42069   0.05382  -0.27898   0.65008   0.00000
   27 H4               S    0.35049  -0.01341   0.50735  -1.38992   0.00000
   28 H4               X    0.02562   0.00081   0.03327  -0.09544   0.00000
   29 H4               Y   -0.00071   0.02395  -0.00576   0.02899   0.00000
   30 H4               Z   -0.03724  -0.00572  -0.02968   0.03026   0.00000
   31 O5               S    0.00000  -0.01856  -0.02555   0.00000   0.00000
   32 O5               S   -0.00004   0.24482   0.08184   0.00006   0.00000
   33 O5               X   -0.07478  -0.08478  -0.27234  -0.08205   0.00000
   34 O5               Y   -0.04471   0.23947   0.09140  -0.04918   0.00000
   35 O5               Z    0.14553   0.03012  -0.11177   0.15978   0.00000
   36 O5               S    0.00000  -0.75318  -0.20505  -0.00014   0.00000
   37 O5               X   -0.09455   0.08677   0.03277   0.11495   0.00000
   38 O5               Y   -0.05661   0.00074  -0.24638   0.06890   0.00000
   39 O5               Z    0.18389   0.04479  -0.05896  -0.22383   0.00000
   40 O5              XX    0.01666   0.09865  -0.05656  -0.03042   0.00000
   41 O5              YY   -0.00520  -0.08961  -0.06170   0.04203   0.00000
   42 O5              ZZ   -0.01150   0.10545   0.00085  -0.01153   0.00000
   43 O5              XY    0.00079   0.07218  -0.13696   0.02995   0.00000
   44 O5              XZ   -0.01532   0.01771  -0.13032   0.03764   0.00000
   45 O5              YZ    0.01174  -0.03250  -0.12500  -0.07676   0.00000
   46 H6               S    0.00006   0.13547  -0.81887  -0.00002   0.00000
   47 H6               S    0.00005  -0.26977   0.74852   0.00006   0.00000
   48 H6               X    0.00026  -0.03198   0.10679  -0.00191   0.00000
   49 H6               Y    0.00014   0.04599   0.07473  -0.00115   0.00000
   50 H6               Z   -0.00052  -0.00227   0.07784   0.00372   0.00000
   
  
  end of program post
   
 Total cpu seconds     user:       2.850   user+sys:       3.530
  
 Total elapsed time:    24 seconds

Job CH3OH_6-31G++ completed on chem-alpha at Tue Aug 21 07:26:19 2007
