Job CH4_STO-3G started on chem-alpha at Tue Aug 21 07:31:45 2007
jobid: chem-alpha-0-46669b1e

  +--------------------------------------------------------------------+
  |  Jaguar version 7.0, release 109                                   |
  |                                                                    |
  |  Copyright (c) 2007 Schrodinger,  LLC.                             |
  |  All Rights Reserved.                                              |
  |                                                                    |
  |  Use of this program should be acknowledged in publications as:    |
  |  Jaguar, version 7.0, Schrodinger, LLC, New York, NY, 2007.        |
  +--------------------------------------------------------------------+
   
  start of program pre
  Job name: CH4_STO-3G
  Executables used: /software/schrodinger/jaguar-v70109/bin/Linux-x86
  Temporary files : /var/tmp/hatuey/CH4_STO-3G
  Maestro file (input):  CH4_STO-3G.mae
  Maestro file (output): CH4_STO-3G.01.mae
  
  
  Dynamic memory assumed available (MB):     256
  
  basis set:             sto-3g          
  net molecular charge:    0
  multiplicity:            1
  
  number of basis functions....            9
  
  Basis set name for each atom
  
  Atom     Basis 
  C1       sto-3g          
  H2       sto-3g          
  H3       sto-3g          
  H4       sto-3g          
  H5       sto-3g          
  
  Gaussian Functions - Shell information
  
             s    j
             h    c  i       n
             e    o  s       f
             l    n  h       s
  atom       l    t  l  l    h          z              coef            rcoef
--------    ---  --- -- --  ---     ----------      ----------       ---------
 C1          1    3  0  1    0      71.6168373       0.1543290       2.7078144
 C1          2   -1  0  1    0      13.0450963       0.5353281       2.6188802
 C1          3   -1  0  1    0       3.5305122       0.4446345       0.8161906
 C1          4    2  2  1    1       2.9412494      -0.2956454      -0.4732386
 C1          5   -4  2  1    1       0.6834831       1.1815287       0.6329949
 C1          6    2 -1  2    2       2.9412494       0.2213487       1.2152952
 C1          7   -6 -1  2    2       0.6834831       0.8627064       0.7642102
 C1          8    1  1  1    1       0.2222899       1.0000000       0.2307278
 C1          9    1 -1  2    2       0.2222899       1.0000000       0.2175654
 H2          1    2  0  1    5       3.4252509       0.2405014       0.4315658
 H2          2   -1  0  1    5       0.6239137       0.8342385       0.4173916
 H2          3    1  0  1    5       0.1688554       1.0000000       0.1877355
 H3          1    2  0  1    6       3.4252509       0.2405014       0.4315658
 H3          2   -1  0  1    6       0.6239137       0.8342385       0.4173916
 H3          3    1  0  1    6       0.1688554       1.0000000       0.1877355
 H4          1    2  0  1    7       3.4252509       0.2405014       0.4315658
 H4          2   -1  0  1    7       0.6239137       0.8342385       0.4173916
 H4          3    1  0  1    7       0.1688554       1.0000000       0.1877355
 H5          1    2  0  1    8       3.4252509       0.2405014       0.4315658
 H5          2   -1  0  1    8       0.6239137       0.8342385       0.4173916
 H5          3    1  0  1    8       0.1688554       1.0000000       0.1877355
  
  
  Gaussian Functions - Normalized coefficients
  
             s
             h    t
             e    y
             l    p    f
  atom       l    e    n          z          rcoef        rmfac     rcoef*rmfac
--------    ---  ---  ---     ---------    ----------   ----------  -----------
 C1          1    S    1      71.616837     2.707814     1.000000     2.707814
 C1          2    S    1      13.045096     2.618880     1.000000     2.618880
 C1          3    S    1       3.530512     0.816191     1.000000     0.816191
 C1          4    S    2       2.941249    -0.473239     1.000000    -0.473239
 C1          5    S    2       0.683483     0.632995     1.000000     0.632995
 C1          6    X    3       2.941249     1.215295     1.000000     1.215295
                  Y    4                                 1.000000     1.215295
                  Z    5                                 1.000000     1.215295
 C1          7    X    3       0.683483     0.764210     1.000000     0.764210
                  Y    4                                 1.000000     0.764210
                  Z    5                                 1.000000     0.764210
 C1          8    S    2       0.222290     0.230728     1.000000     0.230728
 C1          9    X    3       0.222290     0.217565     1.000000     0.217565
                  Y    4                                 1.000000     0.217565
                  Z    5                                 1.000000     0.217565
 H2          1    S    6       3.425251     0.431566     1.000000     0.431566
 H2          2    S    6       0.623914     0.417392     1.000000     0.417392
 H2          3    S    6       0.168855     0.187735     1.000000     0.187735
 H3          1    S    7       3.425251     0.431566     1.000000     0.431566
 H3          2    S    7       0.623914     0.417392     1.000000     0.417392
 H3          3    S    7       0.168855     0.187735     1.000000     0.187735
 H4          1    S    8       3.425251     0.431566     1.000000     0.431566
 H4          2    S    8       0.623914     0.417392     1.000000     0.417392
 H4          3    S    8       0.168855     0.187735     1.000000     0.187735
 H5          1    S    9       3.425251     0.431566     1.000000     0.431566
 H5          2    S    9       0.623914     0.417392     1.000000     0.417392
 H5          3    S    9       0.168855     0.187735     1.000000     0.187735
  
  Effective Core Potential 
  
  Atom      Electrons represented by ECP
 C1                     0
 H2                     0
 H3                     0
 H4                     0
 H5                     0
  
  no dealiasing set available for atom            1
  switch to all-analytic calculation
  
 Input geometry:
                                   angstroms
  atom               x                 y                 z
  C1           -1.0459390000      1.3261520000      0.4486240000 
  H2           -0.6490940000      0.3335100000      0.1520660000 
  H3           -2.0414230000      1.2001040000      0.9217990000 
  H4           -1.1424530000      1.9693680000     -0.4501120000 
  H5           -0.3507860000      1.8016250000      1.1707450000 
   
  principal moments of inertia:
        amu*angstrom^2:        3.30773        3.30774        3.30774
                g*cm^2: 5.49262219E-40 5.49262412E-40 5.49262705E-40
   
  rotational constants:
               cm^(-1):     5.09642704     5.09642525     5.09642253
                   GHz:   152.78703887   152.78698537   152.78690369
   
  Molecular weight:      16.03 amu
   
  Stoichiometry: CH4
  Molecular Point Group: Td      
	Molecule translated to center of mass 
	Molecule reoriented along symmetry axes
  Point Group used: Td
  
  
 Symmetrized geometry:
                                   angstroms
  atom               x                 y                 z
  C1            0.0000000000      0.0000000000      0.0000000000 
  H2            0.6405128800     -0.6405128800     -0.6405128800 
  H3           -0.6405128800      0.6405128800     -0.6405128800 
  H4            0.6405128800      0.6405128800      0.6405128800 
  H5           -0.6405128800     -0.6405128800      0.6405128800 
   
  nuclear repulsion energy.......      13.200435416 hartrees
  Plot box parameters (in Angstoms):
   x min,max:          -2.557513    2.642487
   y min,max:          -2.557513    2.642487
   z min,max:          -2.557513    2.642487
   plot resolution:     2.500000
   points:    13   13   13
  
 
 Non-default options chosen:
   Highest accuracy cutoffs used in SCF
   Electrostatic potential fit to point charges on atomic centers
   Electron density computed on grid number  -7
  
 Non-default print settings:
      1=  2 102=  8
  
  end of program pre
   
   
  start of program onee
  smallest eigenvalue of S:    2.320E-01
  number of canonical orbitals.....            9
  end of program onee
   
   
  start of program hfig
  initial wavefunction generated automatically from atomic wavefunctions
 
  Irreducible     Total no   No of occupied orbitals 
  representation  orbitals   Shell_1  Shell_2    ...
  A1                 3          2
  A2                 0          0
  E/A1               0          0
  E/A2               0          0
  T1/A2              0          0
  T1/B1              0          0
  T1/B2              0          0
  T2/A1              2          1
  T2/B1              2          1
  T2/B2              2          1
  ------------------------
  Orbital occupation/shell    1.000
 
  end of program hfig
   
   
  start of program probe
  end of program probe
   
   
  start of program grid
   
  number of gridpoints: 
     atom         C1        H2        H3        H4        H5     total
  grid # 1         1         0         0       722         0       723
  grid # 2        30       544       509       609       505      2197
   
  end of program grid
   
   
  start of program scf
 number of electrons..........         10
 number of alpha electrons....          5
 number of beta electrons.....          5
 number of orbitals, total....          9
 number of doubly-occ'd orbs..          5
 number of open shell orbs....          0
 number of occupied orbitals..          5
 number of virtual orbitals...          4
 number of hamiltonians.......          1
 number of shells.............          1
 SCF type: HF
  
       i  u  d  i  g                   
       t  p  i  c  r                                 RMS    maximum
       e  d  i  u  i                       energy  density   DIIS  
       r  t  s  t  d       total energy    change  change    error 
  
etot   1  N  N  0  N     -39.68171300358           8.2E-03  1.9E-01
etot   2  N  Y  0  N     -39.72245416985  4.1E-02  2.0E-03  1.8E-02
etot   3  N  Y  0  N     -39.72448762575  2.0E-03  5.1E-04  7.9E-03
etot   4  N  Y  0  N     -39.72459937475  1.1E-04  6.9E-05  6.5E-04
etot   5  N  N  0  N     -39.72460093193  1.6E-06  0.0E+00  0.0E+00
  
  
 Energy components, in hartrees:
   (A)  Nuclear repulsion............      13.20043541571
   (E)  Total one-electron terms.....     -78.92724774721
   (I)  Total two-electron terms.....      26.00221139957
   (L)  Electronic energy............     -52.92503634764  (E+I)
   (N)  Total energy.................     -39.72460093193  (A+L)
  
 SCFE: SCF energy: HF       -39.72460093193 hartrees   iterations:   5
  
 
 HOMO energy:    -0.51021
 LUMO energy:     0.69609
 
  Orbital energies/symmetry label: 
  -11.03213 A1        -0.89865 A1        -0.51021 T2/B2     -0.51021 T2/B1  
   -0.51021 T2/A1      0.69609 T2/B1      0.69609 T2/B2      0.69609 T2/A1  
    0.72185 A1     
 
  end of program scf
   
   
  start of program ch
  gridpoints used for charge fit          695
    out of a possible maximum of          723
  
   Electrostatic potential fitting constrained to reproduce
     total charge:                yes
     dipole moment:               no 
     traceless quadrupole moment: no 
     traceless octapole moment:   no 
  
  Atomic charges from electrostatic potential: 
   
 Atom       C1           H2           H3           H4           H5      
 Charge   -0.45417      0.11354      0.11354      0.11354      0.11354
  
  sum of atomic charges:     0.000000
   
 RMS Error   1.78E-04 hartrees
 
  end of program ch
   
   
  start of program elden
  
  Calculating electrostatic potential in units of kcal/mol
  File written:
    CH4_STO-3G_potential.plt
 
  Calculating orbital amplitude...
  Files written:
    CH4_STO-3G_MO_5.plt
    CH4_STO-3G_MO_6.plt
 
  Calculating electron density...
  charge density evaluated on         2197  gridpoints
  File written:
    CH4_STO-3G_density.plt
  
  end of program elden
   
   
  start of program post
  ***************************************** 
 
 Occupied + virtual Orbitals- final wvfn
 
  ***************************************** 
   
   
                              1         2         3         4         5
  eigenvalues-            -11.03213  -0.89865  -0.51021  -0.51021  -0.51021
    1 C1               S    0.99205   0.22051   0.00000   0.00000   0.00000
    2 C1               S    0.03716  -0.63504   0.00000   0.00000   0.00000
    3 C1               X    0.00000   0.00000  -0.40228  -0.40228   0.00000
    4 C1               Y    0.00000   0.00000   0.40228  -0.40228   0.00000
    5 C1               Z    0.00000   0.00000   0.00000   0.00000  -0.56891
    6 H2               S   -0.00670  -0.18127  -0.42921   0.00000   0.30350
    7 H3               S   -0.00670  -0.18127   0.42921   0.00000   0.30350
    8 H4               S   -0.00670  -0.18127   0.00000  -0.42921  -0.30350
    9 H5               S   -0.00670  -0.18127   0.00000   0.42921  -0.30350
   
                              6         7         8         9
  eigenvalues-              0.69609   0.69609   0.69609   0.72185
    1 C1               S    0.00000   0.00000   0.00000   0.24982
    2 C1               S    0.00000   0.00000   0.00000  -1.56606
    3 C1               X    0.76970   0.76970   0.00000   0.00000
    4 C1               Y    0.76970  -0.76970   0.00000   0.00000
    5 C1               Z    0.00000   0.00000   1.08853   0.00000
    6 H2               S    0.00000  -0.84555   0.59789   0.65059
    7 H3               S    0.00000   0.84555   0.59789   0.65059
    8 H4               S   -0.84555   0.00000  -0.59789   0.65059
    9 H5               S    0.84555   0.00000  -0.59789   0.65059
   
  
  end of program post
   
 Total cpu seconds     user:       0.950   user+sys:       1.310
  
 Total elapsed time:    3 seconds

Job CH4_STO-3G completed on chem-alpha at Tue Aug 21 07:31:48 2007
