Job CH4_6-31G++ started on chem-alpha at Wed Jun  6 07:27:23 2007
jobid: chem-alpha-0-46669a18

  +--------------------------------------------------------------------+
  |  Jaguar version 7.0, release 109                                   |
  |                                                                    |
  |  Copyright (c) 2007 Schrodinger,  LLC.                             |
  |  All Rights Reserved.                                              |
  |                                                                    |
  |  Use of this program should be acknowledged in publications as:    |
  |  Jaguar, version 7.0, Schrodinger, LLC, New York, NY, 2007.        |
  +--------------------------------------------------------------------+
   
  start of program pre
  Job name: CH4_6-31G++
  Executables used: /software/schrodinger/jaguar-v70109/bin/Linux-x86
  Temporary files : /var/tmp/hatuey/CH4_6-31G++
  Maestro file (input):  CH4_6-31G++.mae
  Maestro file (output): CH4_6-31G++.01.mae
  
  
  Dynamic memory assumed available (MB):     256
  
  basis set:             6-31g**         
  net molecular charge:    0
  multiplicity:            1
  
  Running on   4 processors
   
  number of basis functions....           35
  
  Basis set name for each atom
  
  Atom     Basis 
  C1       6-31g**         
  H2       6-31g**         
  H3       6-31g**         
  H4       6-31g**         
  H5       6-31g**         
  
  Gaussian Functions - Shell information
  
             s    j
             h    c  i       n
             e    o  s       f
             l    n  h       s
  atom       l    t  l  l    h          z              coef            rcoef
--------    ---  --- -- --  ---     ----------      ----------       ---------
 C1          1    6  0  1    0    3047.5248800       0.0018347       0.5363452
 C1          2   -1  0  1    0     457.3695180       0.0140373       0.9894521
 C1          3   -1  0  1    0     103.9486850       0.0688426       1.5972825
 C1          4   -1  0  1    0      29.2101553       0.2321844       2.0791873
 C1          5   -1  0  1    0       9.2866630       0.4679413       1.7741743
 C1          6   -1  0  1    0       3.1639270       0.3623120       0.6125797
 C1          7    3  3  1    1       7.8682723      -0.1193324      -0.3995564
 C1          8   -7  3  1    1       1.8812885      -0.1608542      -0.1841552
 C1          9   -7  3  1    1       0.5442493       1.1434564       0.5163903
 C1         10    3 -1  2    2       7.8682723       0.0689991       1.2960822
 C1         11  -10 -1  2    2       1.8812885       0.3164240       0.9937536
 C1         12  -10 -1  2    2       0.5442493       0.7443083       0.4959527
 C1         13    1  1  1    5       0.1687145       1.0000000       0.1876179
 C1         14    1 -1  2    6       0.1687145       1.0000000       0.1541276
 C1         15    1  0  3    9       0.8000000       1.0000000       1.1138249
 H2          1    3  0  1   15      18.7311370       0.0334946       0.2149354
 H2          2   -1  0  1   15       2.8253944       0.2347270       0.3645712
 H2          3   -1  0  1   15       0.6401217       0.8137573       0.4150514
 H2          4    1  0  1   16       0.1612778       1.0000000       0.1813806
 H2          5    1  0  2   17       1.1000000       1.0000000       1.6057611
 H3          1    3  0  1   20      18.7311370       0.0334946       0.2149354
 H3          2   -1  0  1   20       2.8253944       0.2347270       0.3645712
 H3          3   -1  0  1   20       0.6401217       0.8137573       0.4150514
 H3          4    1  0  1   21       0.1612778       1.0000000       0.1813806
 H3          5    1  0  2   22       1.1000000       1.0000000       1.6057611
 H4          1    3  0  1   25      18.7311370       0.0334946       0.2149354
 H4          2   -1  0  1   25       2.8253944       0.2347270       0.3645712
 H4          3   -1  0  1   25       0.6401217       0.8137573       0.4150514
 H4          4    1  0  1   26       0.1612778       1.0000000       0.1813806
 H4          5    1  0  2   27       1.1000000       1.0000000       1.6057611
 H5          1    3  0  1   30      18.7311370       0.0334946       0.2149354
 H5          2   -1  0  1   30       2.8253944       0.2347270       0.3645712
 H5          3   -1  0  1   30       0.6401217       0.8137573       0.4150514
 H5          4    1  0  1   31       0.1612778       1.0000000       0.1813806
 H5          5    1  0  2   32       1.1000000       1.0000000       1.6057611
  
  
  Gaussian Functions - Normalized coefficients
  
             s
             h    t
             e    y
             l    p    f
  atom       l    e    n          z          rcoef        rmfac     rcoef*rmfac
--------    ---  ---  ---     ---------    ----------   ----------  -----------
 C1          1    S    1    3047.524880     0.536345     1.000000     0.536345
 C1          2    S    1     457.369518     0.989452     1.000000     0.989452
 C1          3    S    1     103.948685     1.597283     1.000000     1.597283
 C1          4    S    1      29.210155     2.079187     1.000000     2.079187
 C1          5    S    1       9.286663     1.774174     1.000000     1.774174
 C1          6    S    1       3.163927     0.612580     1.000000     0.612580
 C1          7    S    2       7.868272    -0.399556     1.000000    -0.399556
 C1          8    S    2       1.881289    -0.184155     1.000000    -0.184155
 C1          9    S    2       0.544249     0.516390     1.000000     0.516390
 C1         10    X    3       7.868272     1.296082     1.000000     1.296082
                  Y    4                                 1.000000     1.296082
                  Z    5                                 1.000000     1.296082
 C1         11    X    3       1.881289     0.993754     1.000000     0.993754
                  Y    4                                 1.000000     0.993754
                  Z    5                                 1.000000     0.993754
 C1         12    X    3       0.544249     0.495953     1.000000     0.495953
                  Y    4                                 1.000000     0.495953
                  Z    5                                 1.000000     0.495953
 C1         13    S    6       0.168714     0.187618     1.000000     0.187618
 C1         14    X    7       0.168714     0.154128     1.000000     0.154128
                  Y    8                                 1.000000     0.154128
                  Z    9                                 1.000000     0.154128
 C1         15   XX   10       0.800000     1.113825     1.000000     1.113825
                 YY   11                                 1.000000     1.113825
                 ZZ   12                                 1.000000     1.113825
                 XY   13                                 1.732051     1.929201
                 XZ   14                                 1.732051     1.929201
                 YZ   15                                 1.732051     1.929201
 H2          1    S   16      18.731137     0.214935     1.000000     0.214935
 H2          2    S   16       2.825394     0.364571     1.000000     0.364571
 H2          3    S   16       0.640122     0.415051     1.000000     0.415051
 H2          4    S   17       0.161278     0.181381     1.000000     0.181381
 H2          5    X   18       1.100000     1.605761     1.000000     1.605761
                  Y   19                                 1.000000     1.605761
                  Z   20                                 1.000000     1.605761
 H3          1    S   21      18.731137     0.214935     1.000000     0.214935
 H3          2    S   21       2.825394     0.364571     1.000000     0.364571
 H3          3    S   21       0.640122     0.415051     1.000000     0.415051
 H3          4    S   22       0.161278     0.181381     1.000000     0.181381
 H3          5    X   23       1.100000     1.605761     1.000000     1.605761
                  Y   24                                 1.000000     1.605761
                  Z   25                                 1.000000     1.605761
 H4          1    S   26      18.731137     0.214935     1.000000     0.214935
 H4          2    S   26       2.825394     0.364571     1.000000     0.364571
 H4          3    S   26       0.640122     0.415051     1.000000     0.415051
 H4          4    S   27       0.161278     0.181381     1.000000     0.181381
 H4          5    X   28       1.100000     1.605761     1.000000     1.605761
                  Y   29                                 1.000000     1.605761
                  Z   30                                 1.000000     1.605761
 H5          1    S   31      18.731137     0.214935     1.000000     0.214935
 H5          2    S   31       2.825394     0.364571     1.000000     0.364571
 H5          3    S   31       0.640122     0.415051     1.000000     0.415051
 H5          4    S   32       0.161278     0.181381     1.000000     0.181381
 H5          5    X   33       1.100000     1.605761     1.000000     1.605761
                  Y   34                                 1.000000     1.605761
                  Z   35                                 1.000000     1.605761
  
  Effective Core Potential 
  
  Atom      Electrons represented by ECP
 C1                     0
 H2                     0
 H3                     0
 H4                     0
 H5                     0
  
  
 Input geometry:
                                   angstroms
  atom               x                 y                 z
  C1           -1.0459390000      1.3261520000      0.4486240000 
  H2           -0.6490940000      0.3335100000      0.1520660000 
  H3           -2.0414230000      1.2001040000      0.9217990000 
  H4           -1.1424530000      1.9693680000     -0.4501120000 
  H5           -0.3507860000      1.8016250000      1.1707450000 
   
  principal moments of inertia:
        amu*angstrom^2:        3.30773        3.30774        3.30774
                g*cm^2: 5.49262219E-40 5.49262412E-40 5.49262705E-40
   
  rotational constants:
               cm^(-1):     5.09642704     5.09642525     5.09642253
                   GHz:   152.78703887   152.78698537   152.78690369
   
  Molecular weight:      16.03 amu
   
  Stoichiometry: CH4
  Molecular Point Group: Td      
	Molecule translated to center of mass 
	Molecule reoriented along symmetry axes
  Point Group used: Td
  
  
 Symmetrized geometry:
                                   angstroms
  atom               x                 y                 z
  C1            0.0000000000      0.0000000000      0.0000000000 
  H2            0.6405128800     -0.6405128800     -0.6405128800 
  H3           -0.6405128800      0.6405128800     -0.6405128800 
  H4            0.6405128800      0.6405128800      0.6405128800 
  H5           -0.6405128800     -0.6405128800      0.6405128800 
   
  nuclear repulsion energy.......      13.200435416 hartrees
  Plot box parameters (in Angstoms):
   x min,max:          -2.557513    2.642487
   y min,max:          -2.557513    2.642487
   z min,max:          -2.557513    2.642487
   plot resolution:     2.500000
   points:    13   13   13
  
 
 Non-default options chosen:
   Highest accuracy cutoffs used in SCF
   Electrostatic potential fit to point charges on atomic centers
   Electron density computed on grid number  -7
  
 Non-default print settings:
      1=  2 102=  8
  
  end of program pre
   
   
  start of program onee
  smallest eigenvalue of S:    1.826E-02
  number of canonical orbitals.....           35
  end of program onee
   
   
  start of program hfig
  initial wavefunction generated automatically from atomic wavefunctions
 
  Irreducible     Total no   No of occupied orbitals 
  representation  orbitals   Shell_1  Shell_2    ...
  A1                 7          2
  A2                 0          0
  E/A1               2          0
  E/A2               2          0
  T1/A2              1          0
  T1/B1              1          0
  T1/B2              1          0
  T2/A1              7          1
  T2/B1              7          1
  T2/B2              7          1
  ------------------------
  Orbital occupation/shell    1.000
 
  end of program hfig
   
   
  start of program probe
  end of program probe
   
   
  start of program grid
   
  number of gridpoints: 
     atom         C1        H2        H3        H4        H5     total
  grid # 1        10         0         0        66         0        76
  grid # 2        26         0         0       265         0       291
  grid # 3         1         0         0       722         0       723
  grid # 4        30       544       509       609       505      2197
   
  Sorting grid blocks by size.
  end of program grid
   
   
  start of program rwr
  end of program rwr
   
   
  start of program scf
 number of electrons..........         10
 number of alpha electrons....          5
 number of beta electrons.....          5
 number of orbitals, total....         35
 number of doubly-occ'd orbs..          5
 number of open shell orbs....          0
 number of occupied orbitals..          5
 number of virtual orbitals...         30
 number of hamiltonians.......          1
 number of shells.............          1
 SCF type: HF
  
       i  u  d  i  g                   
       t  p  i  c  r                                 RMS    maximum
       e  d  i  u  i                       energy  density   DIIS  
       r  t  s  t  d       total energy    change  change    error 
  
etot   1  N  N  1  U     -40.00651707808           9.7E-03  1.9E-01
etot   2  N  Y  1  U     -40.17836200178  1.7E-01  3.2E-03  4.8E-02
etot   3  N  Y  1  U     -40.19803058749  2.0E-02  1.1E-03  1.7E-02
etot   4  N  Y  1  U     -40.19989532490  1.9E-03  3.5E-04  2.3E-03
etot   5  N  Y  1  U     -40.19996186322  6.7E-05  5.3E-05  1.9E-04
etot   6  N  N  1  U     -40.19996244896  5.9E-07  0.0E+00  0.0E+00
  
  
 Energy components, in hartrees:
   (A)  Nuclear repulsion............      13.20043541571
   (E)  Total one-electron terms.....     -79.26666718949
   (I)  Total two-electron terms.....      25.86626932482
   (L)  Electronic energy............     -53.40039786468  (E+I)
   (N)  Total energy.................     -40.19996244896  (A+L)
  
 SCFE: SCF energy: HF       -40.19996244896 hartrees   iterations:   6
  
 
 HOMO energy:    -0.53824
 LUMO energy:     0.25181
 
  Orbital energies/symmetry label: 
  -11.21836 A1        -0.93399 A1        -0.53824 T2/B1     -0.53824 T2/B2  
   -0.53824 T2/A1      0.25181 A1         0.32078 T2/A1      0.32078 T2/B1  
    0.32078 T2/B2      0.73381 T2/B2      0.73381 T2/B1      0.73381 T2/A1  
    1.12874 T2/A1      1.12874 T2/B1      1.12874 T2/B2  
 
  end of program scf
   
   
  start of program ch
  gridpoints used for charge fit          695
    out of a possible maximum of          723
  
   Electrostatic potential fitting constrained to reproduce
     total charge:                yes
     dipole moment:               no 
     traceless quadrupole moment: no 
     traceless octapole moment:   no 
  
  Atomic charges from electrostatic potential: 
   
 Atom       C1           H2           H3           H4           H5      
 Charge   -0.50988      0.12747      0.12747      0.12747      0.12747
  
  sum of atomic charges:     0.000000
   
 RMS Error   2.79E-04 hartrees
 
  end of program ch
   
   
  start of program elden
  
  Calculating electrostatic potential in units of kcal/mol
  File written:
    CH4_6-31G++_potential.plt
 
  Calculating orbital amplitude...
  Files written:
    CH4_6-31G++_MO_5.plt
    CH4_6-31G++_MO_6.plt
 
  Calculating electron density...
  charge density evaluated on         2197  gridpoints
  File written:
    CH4_6-31G++_density.plt
  
  end of program elden
   
   
  start of program post
  ***************************************** 
 
 Occupied + virtual Orbitals- final wvfn
 
  ***************************************** 
   
   
                              1         2         3         4         5
  eigenvalues-            -11.21836  -0.93399  -0.53824  -0.53824  -0.53824
    1 C1               S    0.99575   0.19381   0.00000   0.00000   0.00000
    2 C1               S    0.02756  -0.36490   0.00000   0.00000   0.00000
    3 C1               X    0.00000   0.00000   0.30079   0.30079   0.00000
    4 C1               Y    0.00000   0.00000   0.30079  -0.30079   0.00000
    5 C1               Z    0.00000   0.00000   0.00000   0.00000   0.42537
    6 C1               S   -0.01265  -0.35387   0.00000   0.00000   0.00000
    7 C1               X    0.00000   0.00000   0.15275   0.15275   0.00000
    8 C1               Y    0.00000   0.00000   0.15275  -0.15275   0.00000
    9 C1               Z    0.00000   0.00000   0.00000   0.00000   0.21602
   10 C1              XX   -0.00165   0.00076   0.00000   0.00000   0.00000
   11 C1              YY   -0.00165   0.00076   0.00000   0.00000   0.00000
   12 C1              ZZ   -0.00165   0.00076   0.00000   0.00000   0.00000
   13 C1              XY    0.00000   0.00000   0.00000   0.00000   0.02981
   14 C1              XZ    0.00000   0.00000   0.02108  -0.02108   0.00000
   15 C1              YZ    0.00000   0.00000   0.02108   0.02108   0.00000
   16 H2               S   -0.00004  -0.13520   0.00000   0.23878  -0.16884
   17 H2               S    0.00228  -0.04614   0.00000   0.21484  -0.15191
   18 H2               X    0.00013   0.00753   0.00469  -0.00451   0.00651
   19 H2               Y   -0.00013  -0.00753   0.00469   0.00451  -0.00651
   20 H2               Z   -0.00013  -0.00753   0.00000   0.00920   0.00013
   21 H3               S   -0.00004  -0.13520   0.00000  -0.23878  -0.16884
   22 H3               S    0.00228  -0.04614   0.00000  -0.21484  -0.15191
   23 H3               X   -0.00013  -0.00753   0.00469  -0.00451  -0.00651
   24 H3               Y    0.00013   0.00753   0.00469   0.00451   0.00651
   25 H3               Z   -0.00013  -0.00753   0.00000  -0.00920   0.00013
   26 H4               S   -0.00004  -0.13520   0.23878   0.00000   0.16884
   27 H4               S    0.00228  -0.04614   0.21484   0.00000   0.15191
   28 H4               X    0.00013   0.00753  -0.00451   0.00469  -0.00651
   29 H4               Y    0.00013   0.00753  -0.00451  -0.00469  -0.00651
   30 H4               Z    0.00013   0.00753  -0.00920   0.00000   0.00013
   31 H5               S   -0.00004  -0.13520  -0.23878   0.00000   0.16884
   32 H5               S    0.00228  -0.04614  -0.21484   0.00000   0.15191
   33 H5               X   -0.00013  -0.00753  -0.00451   0.00469   0.00651
   34 H5               Y   -0.00013  -0.00753  -0.00451  -0.00469   0.00651
   35 H5               Z    0.00013   0.00753   0.00920   0.00000   0.00013
   
                              6         7         8         9        10
  eigenvalues-              0.25181   0.32078   0.32078   0.32078   0.73381
    1 C1               S    0.15825   0.00000   0.00000   0.00000   0.00000
    2 C1               S   -0.11256   0.00000   0.00000   0.00000   0.00000
    3 C1               X    0.00000   0.00000  -0.21597  -0.21597   0.51823
    4 C1               Y    0.00000   0.00000  -0.21597   0.21597  -0.51823
    5 C1               Z    0.00000  -0.30543   0.00000   0.00000   0.00000
    6 C1               S   -2.69041   0.00000   0.00000   0.00000   0.00000
    7 C1               X    0.00000   0.00000  -1.02973  -1.02973  -0.95436
    8 C1               Y    0.00000   0.00000  -1.02973   1.02973   0.95436
    9 C1               Z    0.00000  -1.45625   0.00000   0.00000   0.00000
   10 C1              XX    0.01094   0.00000   0.00000   0.00000   0.00000
   11 C1              YY    0.01094   0.00000   0.00000   0.00000   0.00000
   12 C1              ZZ    0.01094   0.00000   0.00000   0.00000   0.00000
   13 C1              XY    0.00000   0.00997   0.00000   0.00000   0.00000
   14 C1              XZ    0.00000   0.00000   0.00705  -0.00705  -0.05674
   15 C1              YZ    0.00000   0.00000   0.00705   0.00705   0.05674
   16 H2               S   -0.00019  -0.04695   0.00000   0.06640   0.43682
   17 H2               S    1.01556  -1.11754   0.00000   1.58044   0.08583
   18 H2               X   -0.00100   0.00014  -0.00508  -0.00527  -0.02610
   19 H2               Y    0.00100  -0.00014  -0.00508   0.00527   0.02610
   20 H2               Z    0.00100  -0.00732   0.00000   0.00019   0.01400
   21 H3               S   -0.00019  -0.04695   0.00000  -0.06640  -0.43682
   22 H3               S    1.01556  -1.11754   0.00000  -1.58044  -0.08583
   23 H3               X    0.00100  -0.00014  -0.00508  -0.00527  -0.02610
   24 H3               Y   -0.00100   0.00014  -0.00508   0.00527   0.02610
   25 H3               Z    0.00100  -0.00732   0.00000  -0.00019  -0.01400
   26 H4               S   -0.00019   0.04695   0.06640   0.00000   0.00000
   27 H4               S    1.01556   1.11754   1.58044   0.00000   0.00000
   28 H4               X   -0.00100  -0.00014  -0.00527  -0.00508  -0.01210
   29 H4               Y   -0.00100  -0.00014  -0.00527   0.00508   0.01210
   30 H4               Z   -0.00100  -0.00732  -0.00019   0.00000   0.00000
   31 H5               S   -0.00019   0.04695  -0.06640   0.00000   0.00000
   32 H5               S    1.01556   1.11754  -1.58044   0.00000   0.00000
   33 H5               X    0.00100   0.00014  -0.00527  -0.00508  -0.01210
   34 H5               Y    0.00100   0.00014  -0.00527   0.00508   0.01210
   35 H5               Z   -0.00100  -0.00732   0.00019   0.00000   0.00000
   
                             11        12        13        14        15
  eigenvalues-              0.73381   0.73381   1.12874   1.12874   1.12874
    1 C1               S    0.00000   0.00000   0.00000   0.00000   0.00000
    2 C1               S    0.00000   0.00000   0.00000   0.00000   0.00000
    3 C1               X    0.51823   0.00000   0.00000   0.56776   0.56776
    4 C1               Y    0.51823   0.00000   0.00000   0.56776  -0.56776
    5 C1               Z    0.00000   0.73288   0.80294   0.00000   0.00000
    6 C1               S    0.00000   0.00000   0.00000   0.00000   0.00000
    7 C1               X   -0.95436   0.00000   0.00000  -0.89626  -0.89626
    8 C1               Y   -0.95436   0.00000   0.00000  -0.89626   0.89626
    9 C1               Z    0.00000  -1.34967  -1.26751   0.00000   0.00000
   10 C1              XX    0.00000   0.00000   0.00000   0.00000   0.00000
   11 C1              YY    0.00000   0.00000   0.00000   0.00000   0.00000
   12 C1              ZZ    0.00000   0.00000   0.00000   0.00000   0.00000
   13 C1              XY    0.00000   0.08025  -0.26073   0.00000   0.00000
   14 C1              XZ    0.05674   0.00000   0.00000  -0.18436   0.18436
   15 C1              YZ    0.05674   0.00000   0.00000  -0.18436  -0.18436
   16 H2               S    0.00000  -0.30888   0.47425   0.00000  -0.67069
   17 H2               S    0.00000  -0.06069  -0.96366   0.00000   1.36282
   18 H2               X   -0.01210   0.00990   0.06036   0.04002  -0.04534
   19 H2               Y   -0.01210  -0.00990  -0.06036   0.04002   0.04534
   20 H2               Z    0.00000  -0.02702  -0.00376   0.00000   0.08536
   21 H3               S    0.00000  -0.30888   0.47425   0.00000   0.67069
   22 H3               S    0.00000  -0.06069  -0.96366   0.00000  -1.36282
   23 H3               X   -0.01210  -0.00990  -0.06036   0.04002  -0.04534
   24 H3               Y   -0.01210   0.00990   0.06036   0.04002   0.04534
   25 H3               Z    0.00000  -0.02702  -0.00376   0.00000  -0.08536
   26 H4               S    0.43682   0.30888  -0.47425  -0.67069   0.00000
   27 H4               S    0.08583   0.06069   0.96366   1.36282   0.00000
   28 H4               X   -0.02610  -0.00990  -0.06036  -0.04534   0.04002
   29 H4               Y   -0.02610  -0.00990  -0.06036  -0.04534  -0.04002
   30 H4               Z   -0.01400  -0.02702  -0.00376  -0.08536   0.00000
   31 H5               S   -0.43682   0.30888  -0.47425   0.67069   0.00000
   32 H5               S   -0.08583   0.06069   0.96366  -1.36282   0.00000
   33 H5               X   -0.02610   0.00990   0.06036  -0.04534   0.04002
   34 H5               Y   -0.02610   0.00990   0.06036  -0.04534  -0.04002
   35 H5               Z    0.01400  -0.02702  -0.00376   0.08536   0.00000
   
  
  end of program post
   
 Total cpu seconds     user:       1.260   user+sys:       1.820
  
 Total elapsed time:    19 seconds

Job CH4_6-31G++ completed on chem-alpha at Wed Jun  6 07:27:42 2007
