********************************************************************************
*                       GENERAL UTILITY LATTICE PROGRAM                        *
*                                 Julian Gale                                  *
*                      Nanochemistry Research Institute                        *
*             Curtin University of Technology, Western Australia               *
********************************************************************************
* Version = 3.1   * Last modified = 23rd May 2007                              *
********************************************************************************
*  optimise     - perform optimisation run                                     *
*  conv         - constant volume calculation                                  *
*  phonon       - calculate phonons for final geometry                         *
*  eigenvectors - output phonon eigenvectors                                   *
*  intensity    - calculate phonon eigenvectors and estimate IR intensities    *
*  torsion      - calculate torsion angles for valid four body terms           *
*  molmec       - molecule option activated, Coulomb subtract 1-2/1-3 terms    *
********************************************************************************

  Job Started  at 20:51.12  2nd December   2010                               

  Number of CPUs =     1


  Total number of configurations input =   1

********************************************************************************
*  Input for Configuration =   1 : C440.s0                                     *
********************************************************************************

  Formula = C10H9O2N                                                    

  Number of irreducible atoms/shells =      22


  Total number atoms/shells =      22

  Dimensionality = 0               :  Cluster


  Charge on cluster =   0.00


  Initial cluster dipoles : x =     -1.714070 e.Angs
                            y =      1.225258 e.Angs
                            z =      0.222438 e.Angs

  Temperature of configuration =  0.000     K 

  Cartesian coordinates of cluster :

--------------------------------------------------------------------------------
   No.  Atomic       x           y          z         Charge      Occupancy
        Label      (Angs)      (Angs)     (Angs)        (e)         (Frac)  
--------------------------------------------------------------------------------
      1 C1    c     -2.3420 *    1.0960 *   -0.0010 *   -0.1819    1.000000    
      2 C1    c     -1.0490 *    1.5890 *    0.0010 *   -0.2684    1.000000    
      3 C2    c      0.0730      0.7330     -0.0010      0.0661    1.000000    
      4 C3    c     -0.1850 *   -0.6550 *   -0.0030 *    0.1492    1.000000    
      5 C1    c     -1.4790 *   -1.1720 *   -0.0050 *   -0.1988    1.000000    
      6 C4    c     -2.5770 *   -0.3000 *   -0.0040 *    0.2336    1.000000    
      7 H1    c     -3.1860 *    1.7820 *   -0.0070 *    0.1768    1.000000    
      8 H1    c     -0.8980 *    2.6650 *    0.0030 *    0.1892    1.000000    
      9 C5    c      1.4540 *    1.1720 *    0.0010 *    0.1307    1.000000    
     10 H1    c     -1.6110 *   -2.2500 *   -0.0110 *    0.1768    1.000000    
     11 C7    c      2.1730 *   -1.1940 *    0.0010 *    0.7946    1.000000    
     12 C6    c      2.4410 *    0.2330 *    0.0020 *   -0.4195    1.000000    
     13 H1    c      3.4910 *    0.5060 *    0.0030 *    0.1718    1.000000    
     14 O1    c      0.8280 *   -1.5660 *   -0.0020 *   -0.3694    1.000000    
     15 O2    c      2.9950 *   -2.0810 *    0.0040 *   -0.6874    1.000000    
     16 C8    c      1.7830 *    2.6420 *    0.0020 *   -0.2362    1.000000    
     17 H2    c      1.3640 *    3.1400 *   -0.8810 *    0.0960    1.000000    
     18 H2    c      1.3630 *    3.1390 *    0.8850 *    0.0960    1.000000    
     19 H2    c      2.8640 *    2.7990 *    0.0020 *    0.0960    1.000000    
     20 N1    c     -3.8700 *   -0.7920 *   -0.0560 *   -0.8553    1.000000    
     21 H3    c     -4.0140 *   -1.7570 *    0.2000 *    0.4202    1.000000    
     22 H3    c     -4.6160 *   -0.1740 *    0.2260 *    0.4202    1.000000    
--------------------------------------------------------------------------------



  Molecule list generated from bondlengths :

  Total number of molecules =   1

--------------------------------------------------------------------------------
Molecule No./:  Atoms
Periodicity  :  
--------------------------------------------------------------------------------
   1  0      : C1   c    1 C1   c    2 C2   c    3 C3   c    4 C1   c    5
             : C4   c    6 H1   c    7 H1   c    8 C5   c    9 H1   c   10
             : C7   c   11 C6   c   12 H1   c   13 O1   c   14 O2   c   15
             : C8   c   16 H2   c   17 H2   c   18 H2   c   19 N1   c   20
             : H3   c   21 H3   c   22
--------------------------------------------------------------------------------


  Analysis of four-body terms for primitive cell:

--------------------------------------------------------------------------------
  Potential   Atom 1     Atom 2     Atom 3     Atom 4         Phi (degrees)
--------------------------------------------------------------------------------
       1     C1       1 C4       6 N1      20 H3      21       163.282471
             C1       1 C4       6 N1      20 H3      22        20.696499
             C1       5 C4       6 N1      20 H3      21        19.164414
             C1       5 C4       6 N1      20 H3      22       161.750386
--------------------------------------------------------------------------------
       2     C2       3 C1       2 C1       1 C4       6         0.054670
             C2       3 C1       2 C1       1 H1       7       179.535947
             C4       6 C1       1 C1       2 H1       8       179.982605
             H1       7 C1       1 C1       2 H1       8         0.391988
--------------------------------------------------------------------------------
       3     C1       1 C4       6 C1       5 C3       4         0.001970
             C1       1 C4       6 C1       5 H1      10       179.770013
             C1       2 C1       1 C4       6 C1       5         0.004371
             C1       2 C1       1 C4       6 N1      20       177.600802
             C3       4 C1       5 C4       6 N1      20       177.590543
             C1       5 C4       6 C1       1 H1       7       179.588195
             H1       7 C1       1 C4       6 N1      20         1.991764
             H1      10 C1       5 C4       6 N1      20         2.181440
--------------------------------------------------------------------------------
       4     C2       3 C3       4 C1       5 C4       6         0.050073
             C2       3 C3       4 C1       5 H1      10       179.728093
             C4       6 C1       5 C3       4 O1      14       179.899566
             H1      10 C1       5 C3       4 O1      14         0.322268
--------------------------------------------------------------------------------
       5     C1       2 C2       3 C3       4 C1       5         0.095928
             C1       2 C2       3 C3       4 O1      14       179.851138
             C1       5 C3       4 C2       3 C5       9       179.999729
             C5       9 C2       3 C3       4 O1      14         0.052663
--------------------------------------------------------------------------------
       6     C1       1 C1       2 C2       3 C3       4         0.097835
             C1       1 C1       2 C2       3 C5       9       179.994272
             C3       4 C2       3 C1       2 H1       8       179.974576
             H1       8 C1       2 C2       3 C5       9         0.078139
--------------------------------------------------------------------------------
       7     C2       3 C3       4 O1      14 C7      11         0.001541
             C1       5 C3       4 O1      14 C7      11       179.951655
--------------------------------------------------------------------------------
       8     C3       4 O1      14 C7      11 C6      12         0.045181
             C3       4 O1      14 C7      11 O2      15       179.874913
--------------------------------------------------------------------------------
       9     C5       9 C6      12 C7      11 O1      14         0.042151
             C5       9 C6      12 C7      11 O2      15       179.869520
             H1      13 C6      12 C7      11 O1      14       179.921967
             H1      13 C6      12 C7      11 O2      15         0.166362
--------------------------------------------------------------------------------
      10     C2       3 C5       9 C6      12 C7      11         0.007144
             C2       3 C5       9 C6      12 H1      13       179.968925
             C7      11 C6      12 C5       9 C8      16       179.995318
             H1      13 C6      12 C5       9 C8      16         0.033538
--------------------------------------------------------------------------------
      11     C1       2 C2       3 C5       9 C6      12       179.840894
             C1       2 C2       3 C5       9 C8      16         0.156662
             C3       4 C2       3 C5       9 C6      12         0.054262
             C3       4 C2       3 C5       9 C8      16       179.948183
--------------------------------------------------------------------------------
      12     C2       3 C5       9 C8      16 H2      17        59.557465
             C2       3 C5       9 C8      16 H2      18        59.644813
             C2       3 C5       9 C8      16 H2      19       179.916131
             C6      12 C5       9 C8      16 H2      17       120.445033
             C6      12 C5       9 C8      16 H2      18       120.352689
             C6      12 C5       9 C8      16 H2      19         0.086368
--------------------------------------------------------------------------------
      13         No angles found
--------------------------------------------------------------------------------
      14     C2       3 C1       2 C1       1 H1       8       179.927935
             C3       4 C2       3 C1       2 H1       7         0.480218
             C1       5 C4       6 C1       1 H1       8         0.009855
             C4       6 C1       1 C1       2 H1       7       179.590618
             C5       9 C2       3 C1       2 H1       7       179.623346
             N1      20 C4       6 C1       1 H1       8       177.586576
--------------------------------------------------------------------------------
      15         No angles found
--------------------------------------------------------------------------------
      16         No angles found
--------------------------------------------------------------------------------
      17         No angles found
--------------------------------------------------------------------------------
      18         No angles found
--------------------------------------------------------------------------------
      19         No angles found
--------------------------------------------------------------------------------
      20     C2       3 C1       2 C1       1 C1       5         0.052459
             C2       3 C3       4 C1       5 C1       1         0.049067
             H1       8 C1       2 C1       1 C1       5       179.980394
             O1      14 C3       4 C1       5 C1       1       179.900572
             N1      20 C4       6 C1       1 C1       5       177.596431
             N1      20 C4       6 C1       5 C1       1       177.588573
--------------------------------------------------------------------------------
      21     C3       4 C2       3 C1       2 C4       6         0.070357
             H1       7 C1       1 C1       2 C4       6       179.590618
             C5       9 C2       3 C1       2 C4       6       179.966794
--------------------------------------------------------------------------------
      22     C1       1 C4       6 C1       5 C2       3         0.022347
             C1       5 C4       6 C1       1 C2       3         0.022487
             H1       8 C1       2 C1       1 C2       3       179.927935
             O1      14 C3       4 C1       5 C2       3       179.949639
             N1      20 C4       6 C1       1 C2       3       177.573944
             N1      20 C4       6 C1       5 C2       3       177.566226
--------------------------------------------------------------------------------
      23     C4       6 C1       1 C1       2 C3       4         0.003404
             H1       7 C1       1 C1       2 C3       4       179.587213
             C5       9 C2       3 C1       2 C3       4       179.896437
--------------------------------------------------------------------------------
      24         No angles found
--------------------------------------------------------------------------------
  Total number of torsions =       74
--------------------------------------------------------------------------------



********************************************************************************
*  General input information                                                   *
********************************************************************************

  Species output for all configurations : 

--------------------------------------------------------------------------------
  Species    Type    Atomic    Atomic    Charge       Radii (Angs)     Library
                     Number     Mass       (e)     Cova   Ionic  VDW   Symbol
--------------------------------------------------------------------------------
    C1       Core        6      12.01    -0.1819   0.770  0.000  1.530          
    C2       Core        6      12.01     0.0661   0.770  0.000  1.530          
    C3       Core        6      12.01     0.1492   0.770  0.000  1.530          
    C4       Core        6      12.01     0.2336   0.770  0.000  1.530          
    H1       Core        1       1.01     0.1768   0.370  0.000  1.080          
    C5       Core        6      12.01     0.1307   0.770  0.000  1.530          
    C7       Core        6      12.01     0.7946   0.770  0.000  1.530          
    C6       Core        6      12.01    -0.4195   0.770  0.000  1.530          
    O1       Core        8      16.00    -0.3694   0.730  0.000  1.360          
    O2       Core        8      16.00    -0.6874   0.730  0.000  1.360          
    C8       Core        6      12.01    -0.2362   0.770  0.000  1.530          
    H2       Core        1       1.01     0.0960   0.370  0.000  1.080          
    N1       Core        7      14.01    -0.8553   0.750  0.000  1.480          
    H3       Core        1       1.01     0.4202   0.370  0.000  1.080          
--------------------------------------------------------------------------------


  Accuracy factor for short range sums =  8.000

  Time limit = Infinity

  General interatomic potentials :

--------------------------------------------------------------------------------
Atom  Types   Potential         A         B         C         D     Cutoffs(Ang)
  1     2                                                            Min    Max 
--------------------------------------------------------------------------------
C1   c C1   c Lenn/es 12  6 0.373E-02  3.82     0.00     0.00      3 Bond 12.000
C1   c C2   c Lenn/es 12  6 0.373E-02  3.82     0.00     0.00      3 Bond 12.000
C2   c C2   c Lenn/es 12  6 0.373E-02  3.82     0.00     0.00      3 Bond 12.000
C1   c C3   c Lenn/es 12  6 0.373E-02  3.82     0.00     0.00      3 Bond 12.000
C2   c C3   c Lenn/es 12  6 0.373E-02  3.82     0.00     0.00      3 Bond 12.000
C3   c C3   c Lenn/es 12  6 0.373E-02  3.82     0.00     0.00      3 Bond 12.000
C1   c C4   c Lenn/es 12  6 0.373E-02  3.82     0.00     0.00      3 Bond 12.000
C2   c C4   c Lenn/es 12  6 0.373E-02  3.82     0.00     0.00      3 Bond 12.000
C3   c C4   c Lenn/es 12  6 0.373E-02  3.82     0.00     0.00      3 Bond 12.000
C4   c C4   c Lenn/es 12  6 0.373E-02  3.82     0.00     0.00      3 Bond 12.000
C1   c C5   c Lenn/es 12  6 0.373E-02  3.82     0.00     0.00      3 Bond 12.000
C2   c C5   c Lenn/es 12  6 0.373E-02  3.82     0.00     0.00      3 Bond 12.000
C3   c C5   c Lenn/es 12  6 0.373E-02  3.82     0.00     0.00      3 Bond 12.000
C4   c C5   c Lenn/es 12  6 0.373E-02  3.82     0.00     0.00      3 Bond 12.000
C5   c C5   c Lenn/es 12  6 0.373E-02  3.82     0.00     0.00      3 Bond 12.000
C1   c C6   c Lenn/es 12  6 0.373E-02  3.82     0.00     0.00      3 Bond 12.000
C2   c C6   c Lenn/es 12  6 0.373E-02  3.82     0.00     0.00      3 Bond 12.000
C3   c C6   c Lenn/es 12  6 0.373E-02  3.82     0.00     0.00      3 Bond 12.000
C4   c C6   c Lenn/es 12  6 0.373E-02  3.82     0.00     0.00      3 Bond 12.000
C5   c C6   c Lenn/es 12  6 0.373E-02  3.82     0.00     0.00      3 Bond 12.000
C6   c C6   c Lenn/es 12  6 0.373E-02  3.82     0.00     0.00      3 Bond 12.000
C1   c C7   c Lenn/es 12  6 0.373E-02  3.82     0.00     0.00      3 Bond 12.000
C2   c C7   c Lenn/es 12  6 0.373E-02  3.82     0.00     0.00      3 Bond 12.000
C3   c C7   c Lenn/es 12  6 0.373E-02  3.82     0.00     0.00      3 Bond 12.000
C4   c C7   c Lenn/es 12  6 0.373E-02  3.82     0.00     0.00      3 Bond 12.000
C5   c C7   c Lenn/es 12  6 0.373E-02  3.82     0.00     0.00      3 Bond 12.000
C6   c C7   c Lenn/es 12  6 0.373E-02  3.82     0.00     0.00      3 Bond 12.000
C7   c C7   c Lenn/es 12  6 0.373E-02  3.82     0.00     0.00      3 Bond 12.000
C1   c C8   c Lenn/es 12  6 0.373E-02  3.82     0.00     0.00      3 Bond 12.000
C2   c C8   c Lenn/es 12  6 0.373E-02  3.82     0.00     0.00      3 Bond 12.000
C3   c C8   c Lenn/es 12  6 0.373E-02  3.82     0.00     0.00      3 Bond 12.000
C4   c C8   c Lenn/es 12  6 0.373E-02  3.82     0.00     0.00      3 Bond 12.000
C5   c C8   c Lenn/es 12  6 0.373E-02  3.82     0.00     0.00      3 Bond 12.000
C6   c C8   c Lenn/es 12  6 0.373E-02  3.82     0.00     0.00      3 Bond 12.000
C7   c C8   c Lenn/es 12  6 0.373E-02  3.82     0.00     0.00      3 Bond 12.000
C8   c C8   c Lenn/es 12  6 0.373E-02  3.82     0.00     0.00      3 Bond 12.000
H1   c C1   c Lenn/es 12  6 0.156E-02  3.37     0.00     0.00      3 Bond 12.000
H1   c C2   c Lenn/es 12  6 0.156E-02  3.37     0.00     0.00      3 Bond 12.000
H1   c C3   c Lenn/es 12  6 0.156E-02  3.37     0.00     0.00      3 Bond 12.000
H1   c C4   c Lenn/es 12  6 0.156E-02  3.37     0.00     0.00      3 Bond 12.000
H1   c C5   c Lenn/es 12  6 0.156E-02  3.37     0.00     0.00      3 Bond 12.000
H1   c C6   c Lenn/es 12  6 0.156E-02  3.37     0.00     0.00      3 Bond 12.000
H1   c C7   c Lenn/es 12  6 0.156E-02  3.37     0.00     0.00      3 Bond 12.000
H1   c C8   c Lenn/es 12  6 0.156E-02  3.37     0.00     0.00      3 Bond 12.000
H1   c H1   c Lenn/es 12  6 0.650E-03  2.92     0.00     0.00      3 Bond 12.000
H2   c C1   c Lenn/es 12  6 0.159E-02  3.39     0.00     0.00      3 Bond 12.000
H2   c C2   c Lenn/es 12  6 0.159E-02  3.39     0.00     0.00      3 Bond 12.000
H2   c C3   c Lenn/es 12  6 0.159E-02  3.39     0.00     0.00      3 Bond 12.000
H2   c C4   c Lenn/es 12  6 0.159E-02  3.39     0.00     0.00      3 Bond 12.000
H2   c C5   c Lenn/es 12  6 0.159E-02  3.39     0.00     0.00      3 Bond 12.000
H2   c C6   c Lenn/es 12  6 0.159E-02  3.39     0.00     0.00      3 Bond 12.000
H2   c C7   c Lenn/es 12  6 0.159E-02  3.39     0.00     0.00      3 Bond 12.000
H2   c C8   c Lenn/es 12  6 0.159E-02  3.39     0.00     0.00      3 Bond 12.000
H1   c H2   c Lenn/es 12  6 0.665E-03  2.95     0.00     0.00      3 Bond 12.000
H2   c H2   c Lenn/es 12  6 0.681E-03  2.97     0.00     0.00      3 Bond 12.000
H3   c C1   c Lenn/es 12  6 0.159E-02  2.51     0.00     0.00      3 Bond 12.000
H3   c C2   c Lenn/es 12  6 0.159E-02  2.51     0.00     0.00      3 Bond 12.000
H3   c C3   c Lenn/es 12  6 0.159E-02  2.51     0.00     0.00      3 Bond 12.000
H3   c C4   c Lenn/es 12  6 0.159E-02  2.51     0.00     0.00      3 Bond 12.000
H3   c C5   c Lenn/es 12  6 0.159E-02  2.51     0.00     0.00      3 Bond 12.000
H3   c C6   c Lenn/es 12  6 0.159E-02  2.51     0.00     0.00      3 Bond 12.000
H3   c C7   c Lenn/es 12  6 0.159E-02  2.51     0.00     0.00      3 Bond 12.000
H3   c C8   c Lenn/es 12  6 0.159E-02  2.51     0.00     0.00      3 Bond 12.000
H1   c H3   c Lenn/es 12  6 0.665E-03  2.06     0.00     0.00      3 Bond 12.000
H2   c H3   c Lenn/es 12  6 0.681E-03  2.09     0.00     0.00      3 Bond 12.000
H3   c H3   c Lenn/es 12  6 0.681E-03  1.20     0.00     0.00      3 Bond 12.000
C1   c O1   c Lenn/es 12  6 0.524E-02  3.59     0.00     0.00      3 Bond 12.000
C2   c O1   c Lenn/es 12  6 0.524E-02  3.59     0.00     0.00      3 Bond 12.000
C3   c O1   c Lenn/es 12  6 0.524E-02  3.59     0.00     0.00      3 Bond 12.000
C4   c O1   c Lenn/es 12  6 0.524E-02  3.59     0.00     0.00      3 Bond 12.000
C5   c O1   c Lenn/es 12  6 0.524E-02  3.59     0.00     0.00      3 Bond 12.000
C6   c O1   c Lenn/es 12  6 0.524E-02  3.59     0.00     0.00      3 Bond 12.000
C7   c O1   c Lenn/es 12  6 0.524E-02  3.59     0.00     0.00      3 Bond 12.000
C8   c O1   c Lenn/es 12  6 0.524E-02  3.59     0.00     0.00      3 Bond 12.000
H1   c O1   c Lenn/es 12  6 0.219E-02  3.14     0.00     0.00      3 Bond 12.000
H2   c O1   c Lenn/es 12  6 0.224E-02  3.17     0.00     0.00      3 Bond 12.000
H3   c O1   c Lenn/es 12  6 0.224E-02  2.28     0.00     0.00      3 Bond 12.000
O1   c O1   c Lenn/es 12  6 0.737E-02  3.37     0.00     0.00      3 Bond 12.000
C1   c O2   c Lenn/es 12  6 0.583E-02  3.57     0.00     0.00      3 Bond 12.000
C2   c O2   c Lenn/es 12  6 0.583E-02  3.57     0.00     0.00      3 Bond 12.000
C3   c O2   c Lenn/es 12  6 0.583E-02  3.57     0.00     0.00      3 Bond 12.000
C4   c O2   c Lenn/es 12  6 0.583E-02  3.57     0.00     0.00      3 Bond 12.000
C5   c O2   c Lenn/es 12  6 0.583E-02  3.57     0.00     0.00      3 Bond 12.000
C6   c O2   c Lenn/es 12  6 0.583E-02  3.57     0.00     0.00      3 Bond 12.000
C7   c O2   c Lenn/es 12  6 0.583E-02  3.57     0.00     0.00      3 Bond 12.000
C8   c O2   c Lenn/es 12  6 0.583E-02  3.57     0.00     0.00      3 Bond 12.000
H1   c O2   c Lenn/es 12  6 0.243E-02  3.12     0.00     0.00      3 Bond 12.000
H2   c O2   c Lenn/es 12  6 0.249E-02  3.15     0.00     0.00      3 Bond 12.000
H3   c O2   c Lenn/es 12  6 0.249E-02  2.26     0.00     0.00      3 Bond 12.000
O1   c O2   c Lenn/es 12  6 0.819E-02  3.34     0.00     0.00      3 Bond 12.000
O2   c O2   c Lenn/es 12  6 0.911E-02  3.32     0.00     0.00      3 Bond 12.000
C1   c N1   c Lenn/es 12  6 0.524E-02  3.73     0.00     0.00      3 Bond 12.000
C2   c N1   c Lenn/es 12  6 0.524E-02  3.73     0.00     0.00      3 Bond 12.000
C3   c N1   c Lenn/es 12  6 0.524E-02  3.73     0.00     0.00      3 Bond 12.000
C4   c N1   c Lenn/es 12  6 0.524E-02  3.73     0.00     0.00      3 Bond 12.000
C5   c N1   c Lenn/es 12  6 0.524E-02  3.73     0.00     0.00      3 Bond 12.000
C6   c N1   c Lenn/es 12  6 0.524E-02  3.73     0.00     0.00      3 Bond 12.000
C7   c N1   c Lenn/es 12  6 0.524E-02  3.73     0.00     0.00      3 Bond 12.000
C8   c N1   c Lenn/es 12  6 0.524E-02  3.73     0.00     0.00      3 Bond 12.000
H1   c N1   c Lenn/es 12  6 0.219E-02  3.28     0.00     0.00      3 Bond 12.000
H2   c N1   c Lenn/es 12  6 0.224E-02  3.31     0.00     0.00      3 Bond 12.000
H3   c N1   c Lenn/es 12  6 0.224E-02  2.42     0.00     0.00      3 Bond 12.000
N1   c O1   c Lenn/es 12  6 0.737E-02  3.51     0.00     0.00      3 Bond 12.000
N1   c O2   c Lenn/es 12  6 0.819E-02  3.49     0.00     0.00      3 Bond 12.000
N1   c N1   c Lenn/es 12  6 0.737E-02  3.65     0.00     0.00      3 Bond 12.000
--------------------------------------------------------------------------------

  Intramolecular potentials :

--------------------------------------------------------------------------------
Atom  Types   Potential         A         B         C         D     Cutoffs(Ang)
  1     2                                                            Min    Max 
--------------------------------------------------------------------------------
H1   c C1   c Harmonic       34.6      1.09     0.00     0.00       0.000 1 Bond
H1   c C6   c Harmonic       34.9      1.09     0.00     0.00       0.000 1 Bond
H2   c C8   c Harmonic       32.5      1.09     0.00     0.00       0.000 1 Bond
H3   c N1   c Harmonic       45.3      1.01     0.00     0.00       0.000 1 Bond
C5   c C8   c Harmonic       29.2      1.49     0.00     0.00       0.000 1 Bond
C7   c O2   c Harmonic       65.6      1.21     0.00     0.00       0.000 1 Bond
C7   c O1   c Harmonic       38.9      1.39     0.00     0.00       0.000 1 Bond
C6   c C7   c Harmonic       32.2      1.45     0.00     0.00       0.000 1 Bond
C5   c C6   c Harmonic       40.8      1.34     0.00     0.00       0.000 1 Bond
C2   c C5   c Harmonic       36.7      1.40     0.00     0.00       0.000 1 Bond
C1   c C1   c Harmonic       39.5      1.38     0.00     0.00       0.000 1 Bond
C1   c C2   c Harmonic       35.8      1.38     0.00     0.00       0.000 1 Bond
C1   c C3   c Harmonic       34.7      1.33     0.00     0.00       0.000 1 Bond
C2   c C3   c Harmonic       41.6      1.38     0.00     0.00       0.000 1 Bond
C3   c O1   c Harmonic       31.8      1.33     0.00     0.00       0.000 1 Bond
C4   c N1   c Harmonic       36.7      1.40     0.00     0.00       0.000 1 Bond
C1   c C4   c Harmonic       38.5      1.40     0.00     0.00       0.000 1 Bond
X    c X    c Coulomb        0.00      0.00     0.00     .167      1-4 only*****
--------------------------------------------------------------------------------

  Intramolecular Three-body potentials :

  Harmonic form:

--------------------------------------------------------------------------------
Atom    Atom    Atom           Force Constants            Theta     Cutoffs  
  1       2       3     (eVrad**-2/eVrad**-3/eVrad**-4)   (deg)  1-2  1-3  2-3
--------------------------------------------------------------------------------
N1    c H3    c H3    c  3.330        0.0000    0.0000   114.660     Bonded
N1    c H3    c C4    c  3.141        0.0000    0.0000   120.780     Bonded
C4    c C1    c N1    c  3.010        0.0000    0.0000   120.510     Bonded
C1    c C1    c C1    c  2.828        0.0000    0.0000   119.970     Bonded
C4    c C1    c C1    c  2.828        0.0000    0.0000   114.100     Bonded
C1    c C1    c C4    c  2.828        0.0000    0.0000   120.260     Bonded
C1    c C3    c C4    c  2.828        0.0000    0.0000   120.440     Bonded
C3    c C1    c C2    c  2.828        0.0000    0.0000   120.550     Bonded
C2    c C1    c C3    c  2.828        0.0000    0.0000   120.010     Bonded
C1    c C1    c C2    c  2.828        0.0000    0.0000   118.520     Bonded
C1    c H1    c C4    c  1.206        0.0000    0.0000   124.870     Bonded
C1    c H1    c C3    c  1.206        0.0000    0.0000   134.300     Bonded
C1    c H1    c C1    c  1.206        0.0000    0.0000   116.720     Bonded
C1    c H1    c C2    c  1.206        0.0000    0.0000   109.090     Bonded
C2    c C1    c C5    c  2.724        0.0000    0.0000   120.020     Bonded
C3    c C1    c O1    c  3.054        0.0000    0.0000   118.830     Bonded
C3    c C2    c O1    c  3.054        0.0000    0.0000   119.230     Bonded
C5    c C2    c C6    c  2.871        0.0000    0.0000   118.460     Bonded
C5    c C2    c C8    c  2.871        0.0000    0.0000   115.320     Bonded
C5    c C6    c C8    c  2.559        0.0000    0.0000   123.790     Bonded
C8    c H2    c H2    c  3.017        0.0000    0.0000   109.820     Bonded
C8    c H2    c C5    c  3.094        0.0000    0.0000   109.410     Bonded
C6    c H1    c C7    c  1.076        0.0000    0.0000   121.450     Bonded
C6    c H1    c C5    c  1.042        0.0000    0.0000   114.910     Bonded
C6    c C5    c C7    c  2.854        0.0000    0.0000   123.360     Bonded
C7    c C6    c O2    c  2.976        0.0000    0.0000   127.710     Bonded
C7    c C6    c O1    c  3.114        0.0000    0.0000   114.660     Bonded
C7    c O1    c O2    c  3.609        0.0000    0.0000   117.000     Bonded
O1    c C3    c C7    c  2.603        0.0000    0.0000   121.400     Bonded
--------------------------------------------------------------------------------

  Intramolecular Four-body potentials :

  Standard form:

--------------------------------------------------------------------------------
         Atom Types             Force cst Sign Phase Phi0         Cutoffs
   1       2       3       4       (eV)                     1-2  2-3  3-4  4-1
--------------------------------------------------------------------------------
X     c N1    c C4    c X     c  .47701E-01 +   3   180.00        Bonded
X     c C1    c C1    c X     c  .31439     +   2   180.00        Bonded
X     c C1    c C4    c X     c  .31439     +   2   180.00        Bonded
X     c C1    c C3    c X     c  .31439     +   2   180.00        Bonded
X     c C2    c C3    c X     c  .31439     +   2   180.00        Bonded
X     c C1    c C2    c X     c  .31439     +   2   180.00        Bonded
X     c C3    c O1    c X     c  .39028E-01 +   2   180.00        Bonded
X     c C7    c O1    c X     c  .11708     +   2   180.00        Bonded
X     c C7    c C6    c X     c  .24935     +   2   180.00        Bonded
X     c C5    c C6    c X     c  .34692     +   2   180.00        Bonded
X     c C2    c C5    c X     c  .31439     +   2   180.00        Bonded
X     c C5    c C8    c X     c  0.0000     +   2     0.00        Bonded
--------------------------------------------------------------------------------

  Improper Amber form:

--------------------------------------------------------------------------------
         Atom Types             Force cst Sign Phase Phi0         Cutoffs
   1       2       3       4       (eV)                     1-2  2-3  3-4  4-1
--------------------------------------------------------------------------------
X     c X     c C7    c O2    c  .22766     +   2   180.00        Bonded
X     c X     c C1    c H1    c  .23850E-01 +   2   180.00        Bonded
X     c X     c C5    c C8    c  .23850E-01 +   2   180.00        Bonded
X     c X     c C5    c C2    c  .23850E-01 +   2   180.00        Bonded
X     c X     c C6    c H1    c  .23850E-01 +   2   180.00        Bonded
X     c X     c C4    c N1    c  .23850E-01 +   2   180.00        Bonded
X     c X     c C3    c O1    c  .23850E-01 +   2   180.00        Bonded
X     c X     c C1    c C1    c  .23850E-01 +   2   180.00        Bonded
X     c X     c C1    c C4    c  .23850E-01 +   2   180.00        Bonded
X     c X     c C1    c C2    c  .23850E-01 +   2   180.00        Bonded
X     c X     c C1    c C3    c  .23850E-01 +   2   180.00        Bonded
X     c X     c N1    c C4    c  .23850E-01 +   2   120.00        Bonded
--------------------------------------------------------------------------------

********************************************************************************
*  Output for configuration   1 : C440.s0                                      *
********************************************************************************


  Components of energy : 

--------------------------------------------------------------------------------
  Interatomic potentials     =          30.39653136 Kcal/mol
  Three-body potentials      =           3.66705905 Kcal/mol
  Four-body potentials       =           4.72738578 Kcal/mol
  Out of plane potentials    =           0.00000000 Kcal/mol
  Monopole - monopole (real) =         -69.43545491 Kcal/mol
--------------------------------------------------------------------------------
  Total lattice energy       =          -1.32887889 eV
--------------------------------------------------------------------------------
  Total lattice energy       =            -128.2165 kJ/mol
  Total lattice energy       =             -30.6445 kcal/mol
--------------------------------------------------------------------------------


  Number of variables =     63

  Maximum number of calculations  =          1000
  Maximum Hessian update interval =            10
  Maximum step size               =   1.000000000
  Maximum parameter tolerance     =   0.000010000
  Maximum function  tolerance     =   0.000010000
  Maximum gradient  tolerance     =   0.001000000
  Maximum gradient  component     =   0.010000000

  Symmetry not applied to optimisation

  Newton-Raphson optimiser to be used

  BFGS hessian update to be used

  Dumpfile to be written after every cycle

  Start of cluster optimisation :

  Cycle:      0 Energy:        -1.328879  Gnorm:      0.054654  CPU:    0.020
  ** Hessian calculated **
  Cycle:      1 Energy:        -1.435387  Gnorm:      0.002801  CPU:    0.030
  Cycle:      2 Energy:        -1.435543  Gnorm:      0.001570  CPU:    0.040
  ** Hessian calculated **
  Cycle:      3 Energy:        -1.435624  Gnorm:      0.000864  CPU:    0.060
  Cycle:      4 Energy:        -1.435657  Gnorm:      0.000716  CPU:    0.070
  Cycle:      5 Energy:        -1.435685  Gnorm:      0.000615  CPU:    0.080
  Cycle:      6 Energy:        -1.435717  Gnorm:      0.000730  CPU:    0.090
  Cycle:      7 Energy:        -1.435758  Gnorm:      0.000853  CPU:    0.090
  Cycle:      8 Energy:        -1.435824  Gnorm:      0.001094  CPU:    0.100
  Cycle:      9 Energy:        -1.435907  Gnorm:      0.001090  CPU:    0.110
  Cycle:     10 Energy:        -1.435999  Gnorm:      0.001094  CPU:    0.120
  Cycle:     11 Energy:        -1.436084  Gnorm:      0.001010  CPU:    0.130
  Cycle:     12 Energy:        -1.436179  Gnorm:      0.001013  CPU:    0.140
  ** Hessian calculated **
  Cycle:     13 Energy:        -1.436217  Gnorm:      0.000557  CPU:    0.150
  Cycle:     14 Energy:        -1.436235  Gnorm:      0.000543  CPU:    0.160
  Cycle:     15 Energy:        -1.436251  Gnorm:      0.000479  CPU:    0.170
  Cycle:     16 Energy:        -1.436269  Gnorm:      0.000461  CPU:    0.170
  Cycle:     17 Energy:        -1.436280  Gnorm:      0.000312  CPU:    0.180


  **** Optimisation achieved ****


  Final energy =      -1.43628523 eV
  Final Gnorm  =       0.00032352

  Components of energy : 

--------------------------------------------------------------------------------
  Interatomic potentials     =          28.58741049 Kcal/mol
  Three-body potentials      =           3.26022028 Kcal/mol
  Four-body potentials       =           4.20861335 Kcal/mol
  Out of plane potentials    =           0.00000000 Kcal/mol
  Monopole - monopole (real) =         -69.17755610 Kcal/mol
--------------------------------------------------------------------------------
  Total lattice energy       =          -1.43628523 eV
--------------------------------------------------------------------------------
  Total lattice energy       =            -138.5796 kJ/mol
  Total lattice energy       =             -33.1213 kcal/mol
--------------------------------------------------------------------------------

  Final cartesian coordinates of atoms :

--------------------------------------------------------------------------------
   No.  Atomic        x           y          z          Radius
        Label       (Angs)      (Angs)     (Angs)       (Angs) 
--------------------------------------------------------------------------------
     1  C1    c    -2.364013    1.094384   -0.018577    0.000000
     2  C1    c    -1.054881    1.591607   -0.004793    0.000000
     3  C2    c     0.073000    0.733000   -0.001000    0.000000
     4  C3    c    -0.193945   -0.670189   -0.006665    0.000000
     5  C1    c    -1.457029   -1.172813   -0.019973    0.000000
     6  C4    c    -2.582200   -0.306343   -0.046761    0.000000
     7  H1    c    -3.158145    1.837797   -0.013748    0.000000
     8  H1    c    -0.880304    2.665559    0.007219    0.000000
     9  C5    c     1.452867    1.170865    0.014455    0.000000
    10  H1    c    -1.642584   -2.244288   -0.018211    0.000000
    11  C7    c     2.181850   -1.195004    0.019290    0.000000
    12  C6    c     2.447197    0.244223    0.023280    0.000000
    13  H1    c     3.499369    0.504866    0.035177    0.000000
    14  O1    c     0.823317   -1.558362    0.006315    0.000000
    15  O2    c     2.996356   -2.084819    0.029553    0.000000
    16  C8    c     1.789989    2.648400    0.022583    0.000000
    17  H2    c     1.373116    3.122278   -0.868830    0.000000
    18  H2    c     1.367627    3.113184    0.916091    0.000000
    19  H2    c     2.868037    2.831450    0.026387    0.000000
    20  N1    c    -3.879795   -0.805018   -0.006369    0.000000
    21  H3    c    -4.024565   -1.784347    0.205426    0.000000
    22  H3    c    -4.629424   -0.211148    0.324134    0.000000
--------------------------------------------------------------------------------


  Final cartesian derivatives :

--------------------------------------------------------------------------------
   No.  Atomic          x             y             z           Radius
        Label       (eV/Angs)     (eV/Angs)    (eV/Angs)      (eV/Angs)
--------------------------------------------------------------------------------
      1 C1    c      -0.005042     -0.000501      0.002130      0.000000
      2 C1    c      -0.001165      0.003944     -0.001547      0.000000
      3 C2    c       0.000000      0.000000      0.000000      0.000000
      4 C3    c       0.005797     -0.000262     -0.002889      0.000000
      5 C1    c      -0.005100      0.004797      0.004382      0.000000
      6 C4    c       0.009993     -0.002565      0.000112      0.000000
      7 H1    c       0.001917     -0.003768     -0.000876      0.000000
      8 H1    c       0.001340      0.000989      0.000763      0.000000
      9 C5    c       0.000563     -0.000617      0.000975      0.000000
     10 H1    c       0.000899      0.000179     -0.001060      0.000000
     11 C7    c       0.001805      0.001053      0.000178      0.000000
     12 C6    c      -0.001808      0.000886     -0.000875      0.000000
     13 H1    c      -0.000315      0.000028     -0.000386      0.000000
     14 O1    c      -0.000235      0.000731      0.001627      0.000000
     15 O2    c       0.000985      0.001509     -0.000401      0.000000
     16 C8    c      -0.002072      0.002630      0.002931      0.000000
     17 H2    c       0.000247      0.000023      0.000886      0.000000
     18 H2    c       0.000846     -0.001287     -0.001386      0.000000
     19 H2    c      -0.001575      0.000601      0.000104      0.000000
     20 N1    c      -0.000648      0.006615     -0.001215      0.000000
     21 H3    c       0.001200      0.003113      0.001814      0.000000
     22 H3    c      -0.004316     -0.000393     -0.000922      0.000000
--------------------------------------------------------------------------------


  Analysis of four-body terms for primitive cell:

--------------------------------------------------------------------------------
  Potential   Atom 1     Atom 2     Atom 3     Atom 4         Phi (degrees)
--------------------------------------------------------------------------------
       1     C1       1 C4       6 N1      20 H3      21       164.825507
             C1       1 C4       6 N1      20 H3      22        18.744845
             C1       5 C4       6 N1      20 H3      21        10.627528
             C1       5 C4       6 N1      20 H3      22       156.708191
--------------------------------------------------------------------------------
       2     C2       3 C1       2 C1       1 C4       6         0.818857
             C2       3 C1       2 C1       1 H1       7       179.611372
             C4       6 C1       1 C1       2 H1       8       179.415070
             H1       7 C1       1 C1       2 H1       8         0.154702
--------------------------------------------------------------------------------
       3     C1       1 C4       6 C1       5 C3       4         1.880401
             C1       1 C4       6 C1       5 H1      10       178.573194
             C1       2 C1       1 C4       6 C1       5         1.855955
             C1       2 C1       1 C4       6 N1      20       177.427444
             C3       4 C1       5 C4       6 N1      20       177.382550
             C1       5 C4       6 C1       1 H1       7       178.611534
             H1       7 C1       1 C4       6 N1      20         3.040046
             H1      10 C1       5 C4       6 N1      20         3.071044
--------------------------------------------------------------------------------
       4     C2       3 C3       4 C1       5 C4       6         0.836168
             C2       3 C3       4 C1       5 H1      10       179.634653
             C4       6 C1       5 C3       4 O1      14       179.407346
             H1      10 C1       5 C3       4 O1      14         0.121833
--------------------------------------------------------------------------------
       5     C1       2 C2       3 C3       4 C1       5         0.235537
             C1       2 C2       3 C3       4 O1      14       179.513440
             C1       5 C3       4 C2       3 C5       9       179.947766
             C5       9 C2       3 C3       4 O1      14         0.198789
--------------------------------------------------------------------------------
       6     C1       1 C1       2 C2       3 C3       4         0.238497
             C1       1 C1       2 C2       3 C5       9       179.928978
             C3       4 C2       3 C1       2 H1       8       179.532045
             H1       8 C1       2 C2       3 C5       9         0.158435
--------------------------------------------------------------------------------
       7     C2       3 C3       4 O1      14 C7      11         0.319037
             C1       5 C3       4 O1      14 C7      11       179.919029
--------------------------------------------------------------------------------
       8     C3       4 O1      14 C7      11 C6      12         0.230026
             C3       4 O1      14 C7      11 O2      15       179.966149
--------------------------------------------------------------------------------
       9     C5       9 C6      12 C7      11 O1      14         0.029883
             C5       9 C6      12 C7      11 O2      15       179.811766
             H1      13 C6      12 C7      11 O1      14       179.891454
             H1      13 C6      12 C7      11 O2      15         0.109571
--------------------------------------------------------------------------------
      10     C2       3 C5       9 C6      12 C7      11         0.069852
             C2       3 C5       9 C6      12 H1      13       179.984304
             C7      11 C6      12 C5       9 C8      16       179.851437
             H1      13 C6      12 C5       9 C8      16         0.063015
--------------------------------------------------------------------------------
      11     C1       2 C2       3 C5       9 C6      12       179.675126
             C1       2 C2       3 C5       9 C8      16         0.245894
             C3       4 C2       3 C5       9 C6      12         0.010065
             C3       4 C2       3 C5       9 C8      16       179.931085
--------------------------------------------------------------------------------
      12     C2       3 C5       9 C8      16 H2      17        59.661576
             C2       3 C5       9 C8      16 H2      18        60.508521
             C2       3 C5       9 C8      16 H2      19       179.559619
             C6      12 C5       9 C8      16 H2      17       120.417966
             C6      12 C5       9 C8      16 H2      18       119.411937
             C6      12 C5       9 C8      16 H2      19         0.519923
--------------------------------------------------------------------------------
      13         No angles found
--------------------------------------------------------------------------------
      14     C2       3 C1       2 C1       1 H1       8       179.766073
             C3       4 C2       3 C1       2 H1       7         0.113682
             C1       5 C4       6 C1       1 H1       8         2.306034
             C4       6 C1       1 C1       2 H1       7       179.569771
             C5       9 C2       3 C1       2 H1       7       179.576799
             N1      20 C4       6 C1       1 H1       8       177.877523
--------------------------------------------------------------------------------
      15         No angles found
--------------------------------------------------------------------------------
      16         No angles found
--------------------------------------------------------------------------------
      17         No angles found
--------------------------------------------------------------------------------
      18         No angles found
--------------------------------------------------------------------------------
      19         No angles found
--------------------------------------------------------------------------------
      20     C2       3 C1       2 C1       1 C1       5         0.128020
             C2       3 C3       4 C1       5 C1       1         0.121351
             H1       8 C1       2 C1       1 C1       5       179.638053
             O1      14 C3       4 C1       5 C1       1       179.635134
             N1      20 C4       6 C1       1 C1       5       175.571489
             N1      20 C4       6 C1       5 C1       1       175.502149
--------------------------------------------------------------------------------
      21     C3       4 C2       3 C1       2 C4       6         0.652739
             H1       7 C1       1 C1       2 C4       6       179.569771
             C5       9 C2       3 C1       2 C4       6       179.656780
--------------------------------------------------------------------------------
      22     C1       1 C4       6 C1       5 C2       3         1.468050
             C1       5 C4       6 C1       1 C2       3         1.456073
             H1       8 C1       2 C1       1 C2       3       179.766073
             O1      14 C3       4 C1       5 C2       3       179.756486
             N1      20 C4       6 C1       1 C2       3       177.027562
             N1      20 C4       6 C1       5 C2       3       176.970199
--------------------------------------------------------------------------------
      23     C4       6 C1       1 C1       2 C3       4         0.944821
             H1       7 C1       1 C1       2 C3       4       179.485408
             C5       9 C2       3 C1       2 C3       4       179.690481
--------------------------------------------------------------------------------
      24         No angles found
--------------------------------------------------------------------------------
  Total number of torsions =       74
--------------------------------------------------------------------------------



  Born effective charge tensors : 

-------------------------------------------------------------------------------
  Atom             x           y             z
-------------------------------------------------------------------------------
   1 C1    x      -0.1819      0.0000      0.0000
           y       0.0000     -0.1819      0.0000
           z       0.0000      0.0000     -0.1819
-------------------------------------------------------------------------------
   2 C1    x      -0.2684      0.0000      0.0000
           y       0.0000     -0.2684      0.0000
           z       0.0000      0.0000     -0.2684
-------------------------------------------------------------------------------
   3 C2    x       0.0661      0.0000      0.0000
           y       0.0000      0.0661      0.0000
           z       0.0000      0.0000      0.0661
-------------------------------------------------------------------------------
   4 C3    x       0.1492      0.0000      0.0000
           y       0.0000      0.1492      0.0000
           z       0.0000      0.0000      0.1492
-------------------------------------------------------------------------------
   5 C1    x      -0.1988      0.0000      0.0000
           y       0.0000     -0.1988      0.0000
           z       0.0000      0.0000     -0.1988
-------------------------------------------------------------------------------
   6 C4    x       0.2336      0.0000      0.0000
           y       0.0000      0.2336      0.0000
           z       0.0000      0.0000      0.2336
-------------------------------------------------------------------------------
   7 H1    x       0.1768      0.0000      0.0000
           y       0.0000      0.1768      0.0000
           z       0.0000      0.0000      0.1768
-------------------------------------------------------------------------------
   8 H1    x       0.1892      0.0000      0.0000
           y       0.0000      0.1892      0.0000
           z       0.0000      0.0000      0.1892
-------------------------------------------------------------------------------
   9 C5    x       0.1307      0.0000      0.0000
           y       0.0000      0.1307      0.0000
           z       0.0000      0.0000      0.1307
-------------------------------------------------------------------------------
  10 H1    x       0.1768      0.0000      0.0000
           y       0.0000      0.1768      0.0000
           z       0.0000      0.0000      0.1768
-------------------------------------------------------------------------------
  11 C7    x       0.7946      0.0000      0.0000
           y       0.0000      0.7946      0.0000
           z       0.0000      0.0000      0.7946
-------------------------------------------------------------------------------
  12 C6    x      -0.4195      0.0000      0.0000
           y       0.0000     -0.4195      0.0000
           z       0.0000      0.0000     -0.4195
-------------------------------------------------------------------------------
  13 H1    x       0.1718      0.0000      0.0000
           y       0.0000      0.1718      0.0000
           z       0.0000      0.0000      0.1718
-------------------------------------------------------------------------------
  14 O1    x      -0.3694      0.0000      0.0000
           y       0.0000     -0.3694      0.0000
           z       0.0000      0.0000     -0.3694
-------------------------------------------------------------------------------
  15 O2    x      -0.6874      0.0000      0.0000
           y       0.0000     -0.6874      0.0000
           z       0.0000      0.0000     -0.6874
-------------------------------------------------------------------------------
  16 C8    x      -0.2362      0.0000      0.0000
           y       0.0000     -0.2362      0.0000
           z       0.0000      0.0000     -0.2362
-------------------------------------------------------------------------------
  17 H2    x       0.0960      0.0000      0.0000
           y       0.0000      0.0960      0.0000
           z       0.0000      0.0000      0.0960
-------------------------------------------------------------------------------
  18 H2    x       0.0960      0.0000      0.0000
           y       0.0000      0.0960      0.0000
           z       0.0000      0.0000      0.0960
-------------------------------------------------------------------------------
  19 H2    x       0.0960      0.0000      0.0000
           y       0.0000      0.0960      0.0000
           z       0.0000      0.0000      0.0960
-------------------------------------------------------------------------------
  20 N1    x      -0.8553      0.0000      0.0000
           y       0.0000     -0.8553      0.0000
           z       0.0000      0.0000     -0.8553
-------------------------------------------------------------------------------
  21 H3    x       0.4202      0.0000      0.0000
           y       0.0000      0.4202      0.0000
           z       0.0000      0.0000      0.4202
-------------------------------------------------------------------------------
  22 H3    x       0.4202      0.0000      0.0000
           y       0.0000      0.4202      0.0000
           z       0.0000      0.0000      0.4202
-------------------------------------------------------------------------------



  Vibrational Frequency Calculation : 

--------------------------------------------------------------------------------

 Frequencies (cm-1) and Eigenvectors : 

 Frequencies --    -5.1973                -2.6817                 0.0000
 in X        --     0.0000                 0.0013                 0.0000
 in Y        --     0.0001                 0.0025                 0.0000
 IR Inten    --     0.0017                 0.0037                 0.0000
 Atom AN      X      Y      Z        X      Y      Z        X      Y      Z
   1   6     0.00   0.01   0.10    -0.12  -0.24  -0.01    -0.21   0.12  -0.10
   2   6     0.00   0.00   0.24    -0.17  -0.11   0.00    -0.21   0.12  -0.10
   3   6     0.00   0.00   0.14    -0.08   0.00   0.00    -0.21   0.12  -0.10
   4   6     0.00   0.00  -0.12     0.06  -0.02   0.00    -0.21   0.12  -0.10
   5   1     0.00   0.01  -0.26     0.11  -0.15  -0.01    -0.21   0.12  -0.10
   6   6     0.00   0.01  -0.15     0.03  -0.26  -0.01    -0.21   0.12  -0.10
   7   6     0.00   0.00   0.06    -0.06  -0.09   0.00    -0.06   0.03  -0.03
   8   6     0.00   0.00   0.13    -0.08  -0.03   0.00    -0.06   0.03  -0.03
   9   8     0.00   0.00   0.27    -0.12   0.14   0.01    -0.21   0.12  -0.10
  10   8     0.00   0.00  -0.13     0.06  -0.05   0.00    -0.06   0.03  -0.03
  11   6     0.00   0.00  -0.11     0.11   0.22   0.01    -0.21   0.12  -0.10
  12   1     0.00  -0.01   0.16    -0.03   0.24   0.01    -0.21   0.12  -0.10
  13   7     0.00   0.00   0.07    -0.02   0.10   0.00    -0.06   0.03  -0.03
  14   1     0.00   0.00  -0.26     0.17   0.09   0.00    -0.24   0.14  -0.11
  15   0     0.00  -0.01  -0.26     0.24   0.35   0.01    -0.24   0.14  -0.11
  16   0     0.00   0.00   0.54    -0.27   0.18   0.01    -0.21   0.12  -0.10
  17   0     0.01   0.04   0.18    -0.09   0.04   0.00    -0.06   0.03  -0.03
  18   0    -0.01  -0.05   0.18    -0.09   0.04   0.00    -0.06   0.03  -0.03
  19   0     0.00   0.00   0.18    -0.08   0.08   0.00    -0.06   0.03  -0.03
  20   0     0.00   0.01  -0.32     0.08  -0.43  -0.02    -0.23   0.13  -0.11
  21   0     0.00  -0.01  -0.14     0.05  -0.12   0.00    -0.06   0.03  -0.03
  22   0     0.00  -0.02  -0.06     0.00  -0.14  -0.01    -0.06   0.03  -0.03


 Frequencies --     0.0000                 0.0000                 1.1355
 in X        --     0.0000                 0.0000                 0.0000
 in Y        --     0.0000                 0.0000                 0.0000
 IR Inten    --     0.0000                 0.0000                 0.0058
 Atom AN      X      Y      Z        X      Y      Z        X      Y      Z
   1   6     0.13   0.22  -0.01    -0.08   0.06   0.24    -0.01  -0.01   0.34
   2   6     0.13   0.22  -0.01    -0.08   0.06   0.24    -0.01   0.00   0.22
   3   6     0.13   0.22  -0.01    -0.08   0.06   0.24     0.00   0.00   0.04
   4   6     0.13   0.22  -0.01    -0.08   0.06   0.24     0.00   0.00  -0.01
   5   1     0.13   0.22  -0.01    -0.08   0.06   0.24     0.00   0.00   0.10
   6   6     0.13   0.22  -0.01    -0.08   0.06   0.24    -0.01   0.00   0.28
   7   6     0.04   0.06   0.00    -0.02   0.02   0.07     0.00   0.00   0.14
   8   6     0.04   0.06   0.00    -0.02   0.02   0.07     0.00   0.00   0.08
   9   8     0.13   0.22  -0.01    -0.08   0.06   0.24     0.00   0.00  -0.09
  10   8     0.04   0.06   0.00    -0.02   0.02   0.07     0.00   0.00   0.02
  11   6     0.13   0.22  -0.01    -0.08   0.06   0.24     0.01   0.01  -0.31
  12   1     0.13   0.22  -0.01    -0.08   0.06   0.24     0.00   0.01  -0.26
  13   7     0.04   0.06   0.00    -0.02   0.02   0.07     0.00   0.00  -0.10
  14   1     0.16   0.26  -0.02    -0.09   0.07   0.28     0.01   0.00  -0.20
  15   0     0.16   0.26  -0.02    -0.09   0.07   0.28     0.01   0.01  -0.52
  16   0     0.13   0.22  -0.01    -0.08   0.06   0.24    -0.01   0.00  -0.04
  17   0     0.04   0.06   0.00    -0.02   0.02   0.07    -0.03   0.02   0.01
  18   0     0.04   0.06   0.00    -0.02   0.02   0.07     0.03  -0.01   0.01
  19   0     0.04   0.06   0.00    -0.02   0.02   0.07     0.00   0.00  -0.05
  20   0     0.15   0.24  -0.01    -0.09   0.07   0.26     0.00  -0.01   0.43
  21   0     0.04   0.06   0.00    -0.02   0.02   0.07     0.01  -0.01   0.10
  22   0     0.04   0.06   0.00    -0.02   0.02   0.07     0.01  -0.01   0.15


 Frequencies --    92.9774               142.8858               148.9522
 in X        --     0.0024                 0.0000                 0.0012
 in Y        --     0.0242                 0.0000                 0.0000
 IR Inten    --     0.0287                 0.0001                 0.0035
 Atom AN      X      Y      Z        X      Y      Z        X      Y      Z
   1   6     0.00   0.01   0.01     0.00   0.00   0.10     0.00   0.00  -0.03
   2   6     0.00   0.01   0.00     0.00   0.00   0.07     0.00   0.00  -0.19
   3   6     0.00   0.01   0.01     0.00   0.00  -0.05     0.00   0.00  -0.24
   4   6     0.00   0.01   0.03     0.00   0.00  -0.12     0.00   0.00  -0.33
   5   1     0.00   0.01   0.03     0.00   0.00  -0.12     0.00   0.00  -0.20
   6   6     0.00   0.01   0.06     0.00   0.00  -0.01     0.00   0.00   0.03
   7   6    -0.01   0.00  -0.01     0.00   0.00   0.06     0.00   0.00   0.03
   8   6     0.00   0.00  -0.01     0.00   0.00   0.05     0.00   0.00  -0.04
   9   8     0.00   0.00  -0.02     0.00   0.00  -0.07     0.00   0.00  -0.04
  10   8     0.00   0.00   0.01     0.00   0.00  -0.05     0.00   0.00  -0.05
  11   6    -0.01   0.00   0.02     0.00   0.00   0.04     0.00   0.00   0.02
  12   1     0.00   0.00  -0.01     0.00   0.00   0.02     0.00   0.00   0.11
  13   7     0.00   0.00  -0.01     0.00   0.00   0.03     0.00   0.00   0.11
  14   1    -0.01   0.00   0.03     0.00   0.00  -0.16     0.00   0.00  -0.40
  15   0    -0.02  -0.01   0.02    -0.01   0.00   0.26    -0.01   0.00   0.37
  16   0     0.01   0.00  -0.06     0.01   0.00  -0.04     0.00   0.00   0.20
  17   0     0.00  -0.01  -0.02    -0.43   0.13   0.26     0.14   0.01   0.00
  18   0     0.01   0.01  -0.02     0.43  -0.13   0.26    -0.14  -0.01   0.00
  19   0     0.00   0.00  -0.02     0.00   0.00  -0.54     0.00   0.00   0.24
  20   0    -0.01   0.04  -0.06     0.00  -0.01   0.03     0.01   0.00   0.46
  21   0     0.01  -0.14  -0.74     0.01   0.00   0.02     0.03   0.00   0.13
  22   0     0.10  -0.20   0.60     0.01   0.00   0.02     0.05  -0.01   0.26


 Frequencies --   188.6854               208.3709               281.8200
 in X        --     0.0002                 0.0090                 0.0010
 in Y        --     0.0000                 0.0000                 0.0001
 IR Inten    --     0.0064                 0.0091                 0.0279
 Atom AN      X      Y      Z        X      Y      Z        X      Y      Z
   1   6     0.00   0.00  -0.42    -0.05   0.02  -0.02    -0.01   0.00   0.04
   2   6     0.00   0.00  -0.40    -0.06   0.14  -0.01     0.00   0.00  -0.02
   3   6     0.00  -0.01  -0.09     0.01   0.21   0.00     0.00   0.01  -0.10
   4   6     0.00  -0.01   0.09     0.02   0.22   0.01     0.00   0.01   0.06
   5   1     0.00  -0.01   0.19     0.11   0.09   0.00     0.00   0.00   0.20
   6   6     0.00  -0.01  -0.02     0.06  -0.02  -0.01    -0.01  -0.01   0.11
   7   6     0.00   0.00  -0.19    -0.05  -0.03  -0.01     0.00   0.00  -0.01
   8   6     0.00   0.00  -0.17    -0.02   0.04   0.00     0.00   0.00  -0.04
   9   8    -0.01   0.00   0.10     0.08   0.08   0.01     0.01   0.00  -0.26
  10   8     0.00   0.00   0.12     0.07   0.02   0.00     0.00   0.00   0.08
  11   6     0.00   0.00  -0.04    -0.12   0.00   0.00     0.00   0.00  -0.31
  12   1     0.00   0.00   0.10     0.02  -0.01   0.00     0.01   0.00  -0.54
  13   7     0.00   0.00   0.04     0.01  -0.04   0.00     0.00   0.00  -0.15
  14   1     0.00   0.00   0.21    -0.13   0.17   0.02     0.00   0.01   0.11
  15   0     0.01   0.01  -0.38    -0.45  -0.28  -0.03     0.01   0.01   0.37
  16   0    -0.01   0.00   0.34     0.20   0.05   0.01     0.03  -0.01   0.36
  17   0    -0.13   0.09   0.20     0.07   0.02   0.00     0.04   0.12   0.16
  18   0     0.12  -0.09   0.20     0.07   0.02   0.00    -0.02  -0.12   0.15
  19   0     0.00   0.00  -0.04     0.06  -0.01   0.00     0.01  -0.01   0.18
  20   0    -0.01   0.03   0.23     0.26  -0.51   0.00    -0.02  -0.02  -0.13
  21   0     0.01   0.01   0.06     0.18  -0.14   0.05    -0.04  -0.02  -0.11
  22   0     0.03   0.01   0.14     0.00  -0.21  -0.03    -0.05   0.00  -0.14


 Frequencies --   298.7089               334.7915               347.6221
 in X        --     0.0023                 0.0066                 0.0047
 in Y        --     0.0088                 0.0002                 0.0030
 IR Inten    --     0.0111                 0.0409                 0.0130
 Atom AN      X      Y      Z        X      Y      Z        X      Y      Z
   1   6    -0.13   0.04   0.00     0.01   0.11  -0.02     0.02   0.32   0.01
   2   6    -0.09   0.06  -0.02     0.02   0.06   0.15     0.06   0.17  -0.07
   3   6    -0.09   0.04  -0.01    -0.04  -0.02   0.07    -0.05  -0.02  -0.03
   4   6    -0.10   0.03  -0.01    -0.03  -0.02  -0.01    -0.01  -0.01   0.02
   5   1    -0.14   0.08   0.00    -0.03   0.06  -0.36    -0.04   0.20   0.17
   6   6    -0.18   0.03   0.01     0.03   0.12  -0.37     0.05   0.30   0.16
   7   6    -0.04   0.01   0.00     0.00   0.03   0.05     0.00   0.09  -0.02
   8   6     0.02   0.01  -0.01     0.01   0.02   0.10     0.02   0.05  -0.04
   9   8    -0.02  -0.07   0.01    -0.05  -0.06  -0.02    -0.06  -0.16   0.00
  10   8    -0.03   0.02   0.00    -0.01   0.02  -0.12    -0.01   0.06   0.05
  11   6    -0.05  -0.01   0.02    -0.03  -0.05  -0.02     0.00  -0.16  -0.01
  12   1    -0.07  -0.08   0.04    -0.05  -0.06  -0.26    -0.05  -0.15   0.09
  13   7    -0.01  -0.05   0.02    -0.02  -0.01  -0.13    -0.02  -0.01   0.05
  14   1    -0.10  -0.01  -0.02    -0.06  -0.08   0.45    -0.05  -0.15  -0.18
  15   0     0.38   0.39  -0.02     0.12   0.08   0.02     0.26   0.04   0.01
  16   0     0.53  -0.22  -0.01    -0.11  -0.06   0.04    -0.38  -0.12  -0.01
  17   0     0.20  -0.03  -0.01    -0.03  -0.01   0.01    -0.14  -0.06   0.00
  18   0     0.20  -0.02  -0.01    -0.04  -0.03   0.01    -0.13  -0.06   0.00
  19   0     0.17  -0.15  -0.01    -0.04  -0.01   0.02    -0.12   0.02  -0.01
  20   0    -0.12  -0.23   0.01     0.15  -0.05   0.09     0.28  -0.20  -0.05
  21   0     0.02  -0.07   0.00     0.18   0.02   0.27     0.17  -0.08  -0.08
  22   0    -0.08  -0.10  -0.02     0.15  -0.05   0.33    -0.06  -0.14  -0.16


 Frequencies --   385.6596               418.9343               440.1745
 in X        --     0.0001                 0.0050                 0.0007
 in Y        --     0.0003                 0.0002                 0.0000
 IR Inten    --     0.0004                 0.0145                 0.0009
 Atom AN      X      Y      Z        X      Y      Z        X      Y      Z
   1   6    -0.24   0.01   0.02     0.09   0.03   0.34     0.18   0.09  -0.13
   2   6    -0.20   0.05   0.00     0.13  -0.04  -0.17     0.31  -0.17   0.05
   3   6    -0.04   0.14  -0.02     0.08  -0.07  -0.34     0.24  -0.20   0.13
   4   6     0.07   0.16  -0.03    -0.02  -0.05  -0.22    -0.08  -0.13   0.07
   5   1    -0.02   0.22  -0.08    -0.06   0.02  -0.24    -0.28   0.12   0.03
   6   6    -0.24   0.01  -0.03    -0.05   0.05   0.17    -0.31   0.13  -0.08
   7   6    -0.08  -0.01   0.02     0.04   0.02   0.19     0.09   0.07  -0.06
   8   6    -0.07   0.01   0.01     0.04  -0.01  -0.04     0.11  -0.05   0.02
   9   8     0.09  -0.11  -0.01     0.04   0.05  -0.19     0.17   0.13   0.08
  10   8     0.02   0.06  -0.02    -0.02   0.01  -0.08    -0.08   0.04   0.01
  11   6     0.35  -0.10   0.03    -0.04   0.02   0.31     0.03   0.05  -0.11
  12   1     0.23  -0.07  -0.01     0.01   0.03   0.07     0.12   0.08  -0.03
  13   7     0.06   0.00  -0.01     0.00   0.01   0.03     0.03   0.03  -0.02
  14   1     0.28   0.27   0.09    -0.03  -0.05   0.39     0.01  -0.04  -0.09
  15   0     0.20  -0.38  -0.02    -0.04   0.03  -0.21    -0.06  -0.01   0.07
  16   0    -0.11  -0.11   0.01    -0.02   0.09   0.07    -0.02   0.26  -0.02
  17   0    -0.05  -0.04   0.00     0.01   0.08   0.05    -0.03   0.04  -0.02
  18   0    -0.05  -0.05   0.00    -0.03  -0.04   0.04    -0.01   0.09  -0.02
  19   0    -0.04   0.01   0.00    -0.01   0.03   0.06    -0.01   0.11  -0.02
  20   0    -0.31  -0.06   0.04    -0.04  -0.09   0.05    -0.28  -0.29   0.03
  21   0    -0.08  -0.02   0.00    -0.05  -0.06  -0.18     0.04  -0.08   0.07
  22   0    -0.09  -0.03   0.01    -0.13  -0.04  -0.23    -0.12  -0.16   0.06


 Frequencies --   500.8164               517.7587               525.6661
 in X        --     0.0000                 0.0252                 0.0019
 in Y        --     0.0008                 0.0015                 0.0000
 IR Inten    --     0.0008                 0.1275                 0.1262
 Atom AN      X      Y      Z        X      Y      Z        X      Y      Z
   1   6     0.05  -0.01  -0.01    -0.08   0.15   0.13    -0.03   0.16  -0.12
   2   6     0.07  -0.05   0.00    -0.02  -0.08   0.03    -0.02   0.01  -0.07
   3   6     0.04  -0.05   0.01    -0.13  -0.20  -0.17    -0.17  -0.16   0.17
   4   6    -0.02   0.04   0.00    -0.08  -0.20   0.02    -0.02  -0.19  -0.02
   5   1    -0.01   0.00  -0.01    -0.16  -0.06   0.24    -0.06  -0.07  -0.26
   6   6    -0.01  -0.01   0.00    -0.02   0.15  -0.06     0.05   0.13   0.10
   7   6     0.02   0.01   0.00     0.00   0.07   0.05     0.00   0.06  -0.04
   8   6     0.02  -0.02   0.00     0.04  -0.03   0.02     0.03   0.00  -0.04
   9   8     0.14  -0.33   0.01    -0.20   0.00  -0.22    -0.25  -0.01   0.24
  10   8     0.00   0.00   0.00    -0.03  -0.02   0.10    -0.01  -0.02  -0.12
  11   6    -0.10   0.32  -0.01     0.20   0.16   0.20     0.17   0.15  -0.23
  12   1     0.41   0.07   0.00    -0.05   0.20   0.06    -0.10   0.19  -0.06
  13   7     0.12   0.02   0.00    -0.02   0.07   0.05    -0.03   0.07  -0.05
  14   1    -0.04   0.21   0.00     0.27   0.10  -0.09     0.27   0.04   0.11
  15   0    -0.30   0.33   0.00    -0.13  -0.14  -0.08    -0.13  -0.12   0.09
  16   0    -0.13  -0.46   0.00     0.13  -0.09   0.03     0.11  -0.11  -0.03
  17   0    -0.08  -0.18  -0.01     0.08   0.06   0.03     0.04  -0.08  -0.04
  18   0    -0.08  -0.18   0.00     0.04  -0.07   0.03     0.08   0.06  -0.04
  19   0    -0.05  -0.05   0.00     0.05  -0.06   0.06     0.04  -0.08  -0.06
  20   0    -0.02  -0.02   0.01     0.10   0.01  -0.28     0.15   0.01   0.28
  21   0    -0.01  -0.01   0.00     0.19   0.04   0.22    -0.02  -0.06  -0.24
  22   0    -0.01  -0.01  -0.01     0.12  -0.05   0.22    -0.12  -0.02  -0.26


 Frequencies --   580.1709               592.6305               604.7016
 in X        --     0.0032                 0.0003                 0.0002
 in Y        --     0.0000                 0.0029                 0.0000
 IR Inten    --     0.0045                 0.0040                 0.0019
 Atom AN      X      Y      Z        X      Y      Z        X      Y      Z
   1   6    -0.05  -0.01   0.30     0.13  -0.01  -0.05     0.51  -0.15   0.04
   2   6    -0.01  -0.07  -0.25     0.12  -0.05   0.02     0.26   0.47   0.01
   3   6     0.03  -0.01  -0.17     0.03  -0.03   0.04    -0.15   0.09  -0.05
   4   6    -0.06   0.02   0.03    -0.38   0.09  -0.01     0.05   0.03   0.00
   5   1    -0.04  -0.04  -0.01    -0.23  -0.36  -0.02     0.06   0.01   0.04
   6   6     0.00   0.00   0.06     0.09  -0.04   0.02    -0.07  -0.17  -0.06
   7   6    -0.01   0.00   0.14     0.06   0.02  -0.02     0.16  -0.04   0.03
   8   6     0.00  -0.02  -0.09     0.05  -0.02   0.00     0.05   0.15   0.02
   9   8     0.05   0.01   0.16     0.03   0.00   0.00    -0.25  -0.04  -0.02
  10   8    -0.01  -0.01  -0.02    -0.04  -0.11  -0.01     0.03   0.00   0.03
  11   6     0.01  -0.02  -0.65     0.07  -0.11   0.09     0.05   0.02  -0.08
  12   1     0.02  -0.03   0.30    -0.06  -0.13  -0.05    -0.23   0.04   0.06
  13   7     0.01  -0.01   0.21    -0.02  -0.05  -0.04    -0.07   0.03   0.04
  14   1    -0.05   0.09   0.22    -0.18   0.65  -0.03     0.10   0.07   0.03
  15   0     0.04   0.00   0.12     0.22  -0.09  -0.01    -0.01  -0.05   0.01
  16   0     0.00   0.03  -0.05    -0.04   0.02   0.01    -0.06  -0.16  -0.01
  17   0    -0.02  -0.06  -0.04    -0.02   0.01   0.00     0.01  -0.03  -0.01
  18   0     0.01   0.07  -0.04    -0.02   0.00   0.00     0.00  -0.04   0.00
  19   0     0.00   0.01  -0.07    -0.01   0.01   0.00    -0.01  -0.08   0.00
  20   0     0.02   0.02  -0.20     0.16   0.02   0.04    -0.26  -0.12  -0.04
  21   0     0.07   0.04   0.13     0.02   0.00  -0.05    -0.09  -0.02   0.06
  22   0     0.08   0.00   0.12     0.03   0.02  -0.05    -0.02  -0.02   0.07


 Frequencies --   664.3635               745.3395               745.8508
 in X        --     0.0029                 0.0001                 0.0051
 in Y        --     0.0001                 0.0002                 0.0001
 IR Inten    --     0.0432                 0.0123                 0.0085
 Atom AN      X      Y      Z        X      Y      Z        X      Y      Z
   1   6    -0.03   0.02  -0.25     0.00  -0.04   0.04    -0.02   0.08   0.01
   2   6    -0.02  -0.04   0.46     0.05  -0.25  -0.02    -0.10   0.44   0.01
   3   6     0.01  -0.01  -0.27     0.06  -0.05   0.13    -0.12   0.09   0.06
   4   6    -0.01   0.00  -0.28     0.07   0.07   0.50    -0.14  -0.13   0.26
   5   1     0.00   0.00   0.21     0.12   0.19  -0.15    -0.21  -0.36  -0.09
   6   6     0.02   0.02  -0.23     0.00   0.02  -0.21     0.02  -0.02  -0.10
   7   6    -0.01   0.01  -0.03     0.04   0.03   0.05    -0.09  -0.06   0.01
   8   6     0.00  -0.02   0.33     0.05  -0.08  -0.07    -0.08   0.14  -0.03
   9   8     0.01   0.00  -0.16    -0.08   0.02  -0.39     0.15  -0.03  -0.23
  10   8     0.00   0.00   0.24     0.05   0.06  -0.14    -0.10  -0.10  -0.08
  11   6     0.00   0.00  -0.24    -0.02  -0.01  -0.09     0.05   0.02  -0.06
  12   1     0.00   0.00   0.24    -0.20  -0.03   0.20     0.36   0.06   0.13
  13   7     0.00   0.00   0.19    -0.06  -0.02   0.17     0.10   0.03   0.11
  14   1    -0.01   0.02   0.20     0.00   0.14  -0.09    -0.01  -0.24  -0.04
  15   0     0.00   0.00   0.00    -0.01   0.02  -0.01     0.02  -0.04  -0.01
  16   0     0.00   0.00  -0.05    -0.02  -0.08  -0.09     0.04   0.14  -0.05
  17   0     0.02   0.03  -0.01     0.04   0.19   0.06     0.01   0.16   0.05
  18   0    -0.01  -0.03  -0.01    -0.03  -0.23   0.07    -0.03  -0.09   0.03
  19   0     0.00   0.00   0.01     0.00  -0.05   0.12     0.00   0.10   0.07
  20   0     0.06   0.01   0.18     0.02   0.01   0.16     0.02  -0.01   0.08
  21   0    -0.05  -0.03  -0.15    -0.04  -0.02  -0.09    -0.02  -0.01  -0.04
  22   0    -0.06   0.01  -0.13    -0.04   0.01  -0.07    -0.02   0.00  -0.04


 Frequencies --   828.1959               855.4046               862.7816
 in X        --     0.0038                 0.0188                 0.0049
 in Y        --     0.0000                 0.0001                 0.0419
 IR Inten    --     0.0127                 0.0196                 0.0472
 Atom AN      X      Y      Z        X      Y      Z        X      Y      Z
   1   6     0.00   0.02  -0.25    -0.14   0.23   0.00     0.09  -0.10   0.01
   2   6     0.02  -0.01   0.21    -0.08   0.04  -0.01     0.06   0.06   0.00
   3   6     0.02   0.00   0.17    -0.06   0.04  -0.01     0.03  -0.08   0.00
   4   6     0.02   0.01  -0.20     0.08  -0.03   0.01     0.00  -0.12   0.00
   5   1     0.03  -0.01  -0.20     0.14  -0.23   0.01    -0.11   0.10   0.00
   6   6    -0.01   0.00   0.60     0.01  -0.05  -0.02    -0.02   0.08  -0.02
   7   6    -0.01   0.00  -0.32     0.31   0.45   0.03    -0.35  -0.44  -0.01
   8   6     0.01   0.00  -0.04     0.19  -0.02   0.01    -0.18   0.05   0.00
   9   8     0.00   0.01  -0.19     0.02   0.00   0.00     0.02   0.03   0.00
  10   8     0.02   0.00  -0.19     0.13  -0.09   0.01    -0.07   0.04   0.00
  11   6    -0.01   0.00  -0.09    -0.03   0.04   0.00     0.01   0.08   0.00
  12   1    -0.03  -0.01   0.13    -0.03  -0.16   0.00    -0.10  -0.15   0.00
  13   7    -0.01  -0.02   0.09     0.12  -0.55   0.00     0.12  -0.63   0.00
  14   1     0.01   0.01   0.14     0.17   0.02   0.00     0.21   0.10   0.00
  15   0    -0.01   0.01  -0.01    -0.08   0.11   0.00    -0.09   0.11   0.00
  16   0    -0.01  -0.01  -0.12    -0.07   0.09   0.00    -0.04   0.06   0.00
  17   0     0.02   0.18   0.05     0.01   0.05   0.00     0.00   0.03   0.00
  18   0    -0.03  -0.18   0.04     0.01   0.06   0.00     0.00   0.04   0.00
  19   0     0.00  -0.01   0.10    -0.01  -0.04   0.00     0.00  -0.05   0.00
  20   0    -0.07   0.00  -0.19    -0.13  -0.10  -0.01     0.05   0.08   0.01
  21   0     0.07   0.03   0.16    -0.10  -0.01   0.01     0.11   0.01  -0.01
  22   0     0.04  -0.03   0.12     0.01   0.02   0.03    -0.06  -0.05  -0.02


 Frequencies --   923.1547               945.6475               948.2826
 in X        --     0.0000                 0.0031                 0.0004
 in Y        --     0.0052                 0.0002                 0.0001
 IR Inten    --     0.0059                 0.0036                 0.0034
 Atom AN      X      Y      Z        X      Y      Z        X      Y      Z
   1   6     0.17  -0.37  -0.01     0.06  -0.02  -0.03     0.00  -0.02  -0.10
   2   6    -0.15  -0.07   0.00    -0.06  -0.07   0.03     0.01   0.01   0.13
   3   6    -0.17   0.01   0.02     0.18   0.16  -0.04    -0.05  -0.04  -0.12
   4   6    -0.07   0.01  -0.03     0.03   0.04   0.07    -0.01   0.00   0.22
   5   1    -0.19   0.32   0.00    -0.09  -0.17  -0.03     0.02   0.06  -0.12
   6   6    -0.07  -0.06   0.04    -0.03   0.05   0.02     0.01  -0.02   0.14
   7   6     0.38   0.23   0.00     0.20   0.19  -0.01    -0.02  -0.03  -0.11
   8   6    -0.20   0.01  -0.01    -0.58   0.08   0.00     0.13  -0.02   0.01
   9   8    -0.11  -0.01   0.02     0.13   0.15  -0.09    -0.04  -0.04  -0.37
  10   8    -0.26   0.14  -0.01    -0.02  -0.05  -0.03    -0.03   0.03  -0.14
  11   6     0.05   0.02  -0.01     0.01   0.02   0.01     0.00   0.00   0.02
  12   1     0.22   0.13   0.01    -0.23  -0.01   0.00     0.08   0.02   0.01
  13   7     0.14  -0.23  -0.01    -0.07   0.00   0.04     0.03  -0.01   0.16
  14   1    -0.10  -0.07   0.01     0.13  -0.07   0.00    -0.05   0.01  -0.01
  15   0     0.07  -0.07   0.00    -0.04   0.02  -0.01     0.02  -0.01  -0.02
  16   0    -0.02   0.05  -0.03     0.13  -0.15   0.10    -0.04   0.04   0.37
  17   0     0.06   0.11   0.01    -0.15  -0.32  -0.02     0.01  -0.38  -0.10
  18   0     0.05   0.03   0.01    -0.13  -0.08  -0.03     0.08   0.50  -0.09
  19   0     0.01  -0.07   0.02     0.01   0.15  -0.07     0.00  -0.06  -0.25
  20   0     0.26   0.02   0.00    -0.04   0.09   0.01     0.02  -0.02  -0.01
  21   0     0.02   0.01  -0.04     0.20   0.00   0.01    -0.04   0.01   0.02
  22   0     0.12   0.08  -0.03    -0.15  -0.14  -0.01     0.04   0.03   0.02


 Frequencies --   968.5619               988.4270              1004.1383
 in X        --     0.0198                 0.0078                 0.0076
 in Y        --     0.0316                 0.0164                 0.0018
 IR Inten    --     0.0514                 0.0243                 0.0098
 Atom AN      X      Y      Z        X      Y      Z        X      Y      Z
   1   6    -0.10   0.11   0.01    -0.02  -0.03   0.00     0.04   0.27   0.01
   2   6     0.05   0.05   0.01     0.04  -0.08   0.00     0.14  -0.07   0.00
   3   6     0.13   0.03   0.00     0.05   0.18  -0.01     0.07  -0.15   0.00
   4   6    -0.02  -0.01  -0.01    -0.04   0.18   0.01    -0.05  -0.01  -0.01
   5   1    -0.11   0.07   0.00    -0.01  -0.11   0.00     0.13  -0.01   0.00
   6   6     0.03  -0.04   0.02     0.01  -0.01  -0.01     0.05   0.06  -0.01
   7   6    -0.08  -0.01  -0.02    -0.07  -0.08   0.01    -0.09  -0.02  -0.01
   8   6     0.06   0.01  -0.01     0.39  -0.09   0.01    -0.51   0.07  -0.02
   9   8     0.10   0.11   0.00    -0.09   0.25   0.01    -0.13   0.09   0.00
  10   8    -0.38   0.08  -0.02    -0.02  -0.03   0.00     0.34  -0.06   0.01
  11   6     0.04   0.04   0.00     0.08   0.04   0.00     0.01   0.00   0.00
  12   1    -0.20   0.02   0.00     0.00   0.45   0.00     0.13   0.28   0.00
  13   7    -0.04  -0.06   0.00     0.12  -0.32   0.00     0.10  -0.13   0.00
  14   1     0.10  -0.03   0.01    -0.22  -0.21   0.00    -0.27  -0.01   0.00
  15   0    -0.02   0.00   0.00     0.16  -0.19   0.00     0.12  -0.12   0.00
  16   0     0.10  -0.10   0.00     0.01  -0.22   0.00    -0.06  -0.07   0.00
  17   0    -0.14  -0.18   0.00    -0.09  -0.18  -0.02     0.07   0.04  -0.01
  18   0    -0.14  -0.17  -0.01    -0.09  -0.19   0.02     0.07   0.04   0.01
  19   0     0.00   0.18   0.00    -0.01   0.03   0.00     0.01  -0.19   0.00
  20   0     0.12  -0.27  -0.02    -0.04   0.09   0.01    -0.09  -0.16  -0.02
  21   0    -0.47  -0.01  -0.02     0.15   0.00   0.01    -0.28  -0.01   0.01
  22   0     0.37   0.31   0.04    -0.12  -0.10  -0.01     0.13   0.13   0.04


 Frequencies --  1012.9388              1049.1577              1097.1479
 in X        --     0.0024                 0.0250                 0.0001
 in Y        --     0.0004                 0.0080                 0.0001
 IR Inten    --     0.0030                 0.0338                 0.0248
 Atom AN      X      Y      Z        X      Y      Z        X      Y      Z
   1   6     0.03  -0.11   0.00     0.01   0.14   0.00     0.00   0.01   0.22
   2   6    -0.04   0.09   0.00    -0.01   0.01   0.00     0.00   0.00  -0.04
   3   6    -0.20  -0.20   0.02    -0.18  -0.25  -0.02    -0.01   0.00   0.56
   4   6    -0.12  -0.14  -0.01     0.17  -0.13   0.01     0.02   0.00  -0.43
   5   1     0.00   0.22  -0.01     0.39  -0.02   0.01     0.01  -0.02   0.10
   6   6    -0.09  -0.03   0.01     0.19   0.00  -0.02     0.01   0.00  -0.23
   7   6     0.04  -0.01  -0.01    -0.01   0.03   0.01     0.01   0.01  -0.11
   8   6     0.08   0.01  -0.01    -0.10   0.02   0.01     0.01   0.00  -0.43
   9   8    -0.02  -0.05  -0.02    -0.15  -0.07   0.02     0.00   0.00  -0.31
  10   8     0.56  -0.03   0.02    -0.50   0.11  -0.02    -0.03   0.00   0.21
  11   6    -0.02  -0.02   0.00    -0.07  -0.06   0.00     0.00   0.00  -0.03
  12   1     0.03  -0.01   0.00     0.10   0.06   0.00     0.00   0.00   0.07
  13   7     0.03  -0.08   0.01     0.05  -0.06  -0.01     0.00   0.00   0.12
  14   1    -0.05   0.05   0.00    -0.22   0.22  -0.01    -0.01   0.00   0.07
  15   0     0.02  -0.01   0.00     0.07  -0.04   0.00     0.00   0.00  -0.01
  16   0     0.28   0.11   0.01     0.17   0.10   0.00     0.00   0.00   0.09
  17   0    -0.21  -0.16   0.04    -0.10  -0.03   0.04     0.01  -0.08  -0.02
  18   0    -0.21  -0.13  -0.05    -0.10  -0.04  -0.04    -0.01   0.08  -0.01
  19   0     0.01   0.47  -0.01     0.02   0.26   0.01     0.00   0.00  -0.06
  20   0     0.08   0.03   0.00    -0.20  -0.01  -0.01     0.00   0.01   0.04
  21   0    -0.01   0.01  -0.02     0.06  -0.01   0.04     0.01  -0.01  -0.03
  22   0     0.06   0.06  -0.01    -0.16  -0.14   0.02    -0.03  -0.01  -0.02


 Frequencies --  1185.3905              1235.2522              1293.6385
 in X        --     0.0076                 0.0000                 0.0031
 in Y        --     0.0080                 0.0000                 0.0099
[...]
  16   0     0.00  -0.01  -0.17     0.00   0.00   0.00    -0.13  -0.11   0.00
  17   0    -0.46  -0.20   0.04     0.01   0.00  -0.01     0.32   0.07  -0.11
  18   0     0.45   0.23   0.02     0.00   0.00   0.00     0.29   0.06   0.11
  19   0     0.00   0.00   0.67     0.00   0.01   0.00    -0.13   0.42  -0.02
  20   0     0.00   0.00   0.00     0.01   0.01   0.06     0.00  -0.04   0.00
  21   0    -0.01   0.00   0.00    -0.01  -0.01  -0.03    -0.06   0.00   0.00
  22   0     0.00   0.00   0.00    -0.01   0.00  -0.01     0.03   0.02   0.01


 Frequencies --  1461.0243              1494.8559              1531.5757
 in X        --     0.0177                 0.0000                 0.0064
 in Y        --     0.0069                 0.0000                 0.0111
 IR Inten    --     0.0258                 0.0000                 0.0211
 Atom AN      X      Y      Z        X      Y      Z        X      Y      Z
   1   6     0.08   0.03   0.00     0.01   0.00  -0.34     0.20   0.28   0.01
   2   6    -0.04  -0.01   0.00    -0.01   0.00   0.31    -0.01  -0.13   0.00
   3   6    -0.09  -0.02   0.00     0.00   0.00  -0.08    -0.32   0.05   0.00
   4   6     0.25  -0.02   0.00    -0.01   0.00  -0.01    -0.19  -0.10   0.00
   5   1     0.10  -0.13   0.01     0.00   0.00   0.05     0.27   0.03   0.01
   6   6    -0.32   0.07   0.00     0.00   0.01   0.06    -0.32  -0.25   0.00
   7   6    -0.01  -0.03   0.00    -0.01  -0.02   0.65    -0.06  -0.04  -0.01
   8   6     0.01  -0.01   0.00     0.01   0.00  -0.58    -0.03  -0.05   0.00
   9   8     0.08  -0.10   0.00     0.00   0.00   0.05     0.30   0.27   0.00
  10   8    -0.02  -0.04  -0.01     0.00   0.00  -0.09    -0.06   0.04  -0.01
  11   6     0.36   0.37   0.00     0.00   0.00   0.00     0.02   0.03   0.00
  12   1    -0.10  -0.20   0.00     0.00   0.00  -0.01    -0.03  -0.05   0.00
  13   7    -0.06   0.01   0.00     0.00   0.00   0.00    -0.02   0.01   0.00
  14   1    -0.37  -0.03   0.00     0.00   0.00   0.01     0.02  -0.03   0.00
  15   0     0.00  -0.05   0.00     0.00   0.00   0.00     0.01  -0.01   0.00
  16   0     0.06   0.25   0.00     0.00  -0.01  -0.01    -0.08  -0.28   0.00
  17   0    -0.16  -0.12  -0.03    -0.01   0.00   0.00     0.10   0.12   0.06
  18   0    -0.16  -0.12   0.03     0.01   0.00   0.00     0.10   0.12  -0.06
  19   0     0.10  -0.32   0.00     0.00   0.00   0.01    -0.08   0.17   0.00
  20   0     0.07   0.00   0.01    -0.01   0.00  -0.03     0.04   0.03   0.02
  21   0     0.09  -0.02  -0.04     0.00   0.00   0.01     0.23  -0.04  -0.07
  22   0     0.10   0.11  -0.03     0.01   0.00   0.01     0.12   0.18  -0.06


 Frequencies --  1593.0079              1611.1010              1649.8545
 in X        --     0.0012                 0.0016                 0.0731
 in Y        --     0.0141                 0.0088                 0.0000
 IR Inten    --     0.0161                 0.0108                 0.0759
 Atom AN      X      Y      Z        X      Y      Z        X      Y      Z
   1   6    -0.14  -0.10   0.00    -0.02  -0.28   0.00    -0.27  -0.27  -0.01
   2   6     0.16   0.01   0.00    -0.10   0.13   0.00     0.45  -0.05   0.00
   3   6     0.00   0.08   0.00     0.15  -0.31   0.00    -0.34   0.26   0.00
   4   6     0.15  -0.12   0.00    -0.27   0.31   0.00    -0.10  -0.20   0.00
   5   1    -0.11   0.01   0.00     0.38  -0.20   0.00     0.21  -0.06   0.00
   6   6     0.10   0.05   0.00    -0.24   0.47   0.00    -0.13   0.29   0.00
   7   6     0.01   0.03   0.00     0.06  -0.03  -0.01     0.02   0.03   0.00
   8   6     0.00   0.02   0.00     0.03   0.04   0.00    -0.05   0.02   0.00
   9   8    -0.30   0.45   0.00    -0.11   0.13   0.00     0.24  -0.06   0.00
  10   8     0.03  -0.01   0.00    -0.08  -0.04   0.01    -0.02   0.00   0.01
  11   6     0.32   0.11   0.00     0.07  -0.11   0.00    -0.13   0.08   0.00
  12   1     0.19  -0.44   0.00     0.07  -0.05   0.00    -0.06   0.08   0.00
  13   7     0.02   0.05   0.00     0.02   0.01   0.00    -0.02   0.00   0.00
  14   1    -0.22  -0.01   0.00     0.10  -0.09   0.00     0.03   0.02   0.00
  15   0    -0.09   0.08   0.00    -0.07   0.08   0.00     0.08  -0.09   0.00
  16   0    -0.03  -0.25   0.00     0.00  -0.06   0.00    -0.02   0.01   0.00
  17   0     0.08   0.05   0.04     0.02   0.01   0.01     0.00   0.01   0.00
  18   0     0.08   0.06  -0.04     0.02   0.01  -0.01     0.00   0.01   0.00
  19   0    -0.07   0.23   0.00    -0.01   0.05   0.00     0.00  -0.04   0.00
  20   0     0.02   0.01  -0.01    -0.02  -0.06   0.01     0.14   0.03  -0.03
  21   0    -0.11   0.03   0.03     0.04  -0.03  -0.03    -0.26   0.07   0.07
  22   0    -0.06  -0.10   0.02     0.10   0.12  -0.02    -0.09  -0.19   0.05


 Frequencies --  1669.7308              1710.4999              1803.3959
 in X        --     0.0850                 0.0586                 0.0397
 in Y        --     0.0171                 0.0204                 0.0588
 IR Inten    --     0.1104                 0.0817                 0.0985
 Atom AN      X      Y      Z        X      Y      Z        X      Y      Z
   1   6    -0.10  -0.11   0.00    -0.16  -0.15   0.00    -0.03  -0.01   0.00
   2   6     0.11  -0.04   0.00     0.21   0.03   0.00     0.07  -0.02   0.00
   3   6     0.16   0.41   0.00    -0.38  -0.29   0.00    -0.11   0.08   0.00
   4   6    -0.16  -0.39   0.00     0.24   0.31   0.00     0.04  -0.07   0.00
   5   1     0.10   0.05   0.01    -0.26  -0.01   0.00    -0.01   0.01   0.00
   6   6     0.15   0.15   0.00     0.34   0.12   0.00     0.02   0.00   0.00
   7   6     0.01   0.01   0.00     0.02   0.03   0.00     0.00   0.00   0.00
   8   6     0.00  -0.01   0.00    -0.03   0.03   0.00    -0.01   0.00   0.00
   9   8    -0.19  -0.10   0.00     0.29   0.10   0.00     0.14  -0.10   0.00
  10   8     0.01   0.02   0.00     0.03  -0.03   0.00     0.01   0.00   0.00
  11   6    -0.03   0.01   0.00    -0.03   0.06   0.00     0.52  -0.59   0.01
  12   1     0.06  -0.02   0.00    -0.07   0.01   0.00    -0.09   0.26   0.00
  13   7     0.02   0.00   0.00    -0.03   0.00   0.00     0.00  -0.04   0.00
  14   1    -0.01   0.05   0.00    -0.01  -0.03   0.00    -0.13   0.03   0.00
  15   0     0.02  -0.01   0.00     0.03  -0.04   0.00    -0.32   0.35   0.00
  16   0     0.02   0.06   0.00    -0.03  -0.06   0.00     0.00   0.02   0.00
  17   0    -0.02  -0.03  -0.02     0.02   0.03   0.02     0.00   0.00   0.00
  18   0    -0.02  -0.03   0.02     0.02   0.03  -0.01     0.00   0.00   0.00
  19   0     0.01  -0.01   0.00    -0.02   0.00   0.00     0.01  -0.03   0.00
  20   0    -0.28  -0.12   0.04    -0.24  -0.09   0.03     0.00   0.00   0.00
  21   0     0.39  -0.14  -0.12     0.24  -0.10  -0.07     0.00   0.00   0.00
  22   0     0.20   0.39  -0.08     0.11   0.24  -0.04     0.00   0.00   0.00


 Frequencies --  3010.4868              3123.5649              3126.4435
 in X        --     0.0002                 0.0146                 0.0000
 in Y        --     0.0054                 0.0005                 0.0000
 IR Inten    --     0.0055                 0.0151                 0.0168
 Atom AN      X      Y      Z        X      Y      Z        X      Y      Z
   1   6     0.00   0.00   0.00     0.00   0.00   0.00     0.00   0.00   0.00
   2   6     0.00   0.00   0.00     0.00   0.00   0.00     0.00   0.00   0.00
   3   6     0.00   0.00   0.00     0.00   0.00   0.00     0.00   0.00   0.00
   4   6     0.00   0.00   0.00     0.00   0.00   0.00     0.00   0.00   0.00
   5   1     0.00   0.00   0.00     0.00   0.00   0.00     0.00   0.00   0.00
   6   6     0.00   0.00   0.00     0.00   0.00   0.00     0.00   0.00   0.00
   7   6     0.00   0.00   0.00     0.00   0.00   0.00     0.00   0.00   0.00
   8   6     0.00   0.00   0.00     0.00   0.01   0.00     0.00   0.00   0.00
   9   8     0.00  -0.02   0.00     0.01   0.00   0.00     0.00   0.00  -0.01
  10   8     0.00   0.00   0.00     0.00   0.00   0.00     0.00   0.00   0.00
  11   6     0.00   0.00   0.00     0.00   0.00   0.00     0.00   0.00   0.00
  12   1     0.00   0.00   0.00     0.01   0.00   0.00     0.00   0.00   0.00
  13   7     0.00   0.00   0.00    -0.02  -0.01   0.00     0.00   0.00   0.00
  14   1     0.00   0.00   0.00     0.00   0.00   0.00     0.00   0.00   0.00
  15   0     0.00   0.00   0.00     0.00   0.00   0.00     0.00   0.00   0.00
  16   0     0.04   0.19   0.00    -0.32   0.06  -0.01    -0.01   0.00   0.33
  17   0     0.21  -0.26   0.46     0.16  -0.17   0.31    -0.25   0.29  -0.54
  18   0     0.22  -0.25  -0.46     0.15  -0.16  -0.29     0.25  -0.29  -0.56
  19   0    -0.55  -0.11   0.00     0.77   0.13   0.00     0.01   0.00  -0.01
  20   0     0.00   0.00   0.00     0.00   0.00   0.00     0.00   0.00   0.00
  21   0     0.00   0.00   0.00     0.00   0.00   0.00     0.00   0.00   0.00
  22   0     0.00   0.00   0.00     0.00   0.00   0.00     0.00   0.00   0.00


 Frequencies --  3188.0775              3195.9979              3199.3241
 in X        --     0.0126                 0.0010                 0.0059
 in Y        --     0.0078                 0.0732                 0.0063
 IR Inten    --     0.0205                 0.0742                 0.0122
 Atom AN      X      Y      Z        X      Y      Z        X      Y      Z
   1   6     0.14  -0.14   0.00    -0.12   0.10   0.00    -0.13   0.11   0.00
   2   6     0.03   0.22   0.00     0.02   0.09   0.00     0.04   0.18   0.00
   3   6     0.01  -0.01   0.00     0.00   0.00   0.00     0.00  -0.01   0.00
   4   6     0.00   0.00   0.00    -0.01  -0.01   0.00     0.01   0.01   0.00
   5   1     0.01   0.04   0.00     0.04   0.23   0.00    -0.03  -0.17   0.00
   6   6     0.00   0.01   0.00     0.01  -0.02   0.00     0.00   0.00   0.00
   7   6    -0.45   0.43   0.00     0.36  -0.33   0.00     0.39  -0.36   0.00
   8   6    -0.11  -0.70  -0.01    -0.05  -0.30   0.00    -0.10  -0.55  -0.01
   9   8     0.00   0.00   0.00     0.00   0.00   0.00     0.00   0.00   0.00
  10   8    -0.02  -0.12   0.00    -0.13  -0.75   0.00     0.10   0.55   0.00
  11   6     0.00   0.00   0.00     0.00   0.00   0.00     0.00   0.00   0.00
  12   1     0.00   0.00   0.00     0.00   0.00   0.00    -0.01   0.00   0.00
  13   7     0.01   0.00   0.00     0.01   0.00   0.00     0.02   0.01   0.00
  14   1     0.00   0.00   0.00     0.00   0.00   0.00     0.00   0.00   0.00
  15   0     0.00   0.00   0.00     0.00   0.00   0.00     0.00   0.00   0.00
  16   0     0.00   0.00   0.00     0.00   0.00   0.00     0.00   0.00   0.00
  17   0     0.00   0.00   0.00     0.00   0.00   0.00     0.00   0.00   0.00
  18   0     0.00   0.00   0.00     0.00   0.00   0.00     0.00   0.00   0.00
  19   0     0.00   0.00   0.00     0.00   0.00   0.00     0.00   0.00   0.00
  20   0     0.00   0.00   0.00     0.00   0.00   0.00     0.00   0.00   0.00
  21   0     0.00   0.00   0.00     0.00   0.01   0.00     0.00  -0.01   0.00
  22   0     0.00   0.00   0.00     0.00   0.00   0.00     0.00   0.00   0.00


 Frequencies --  3210.8189              3573.5748              3666.9678
 in X        --     0.0391                 0.0917                 0.0381
 in Y        --     0.0029                 0.0170                 0.2575
 IR Inten    --     0.0420                 0.1413                 0.2971
 Atom AN      X      Y      Z        X      Y      Z        X      Y      Z
   1   6     0.00   0.00   0.00     0.00   0.00   0.00     0.00   0.00   0.00
   2   6     0.00   0.01   0.00     0.00   0.00   0.00     0.00   0.00   0.00
   3   6     0.00   0.00   0.00     0.00   0.00   0.00     0.00   0.00   0.00
   4   6     0.00   0.00   0.00     0.00   0.00   0.00     0.00   0.00   0.00
   5   1     0.00   0.00   0.00     0.00   0.00   0.00     0.00   0.00   0.00
   6   6     0.00   0.00   0.00    -0.01   0.00   0.00     0.00   0.01   0.00
   7   6     0.01  -0.01   0.00     0.00   0.00   0.00     0.00   0.00   0.00
   8   6     0.00  -0.02   0.00     0.00   0.00   0.00     0.00   0.00   0.00
   9   8    -0.02   0.01   0.00     0.00   0.00   0.00     0.00   0.00   0.00
  10   8     0.00   0.01   0.00     0.00  -0.01   0.00     0.00   0.01   0.00
  11   6    -0.01  -0.01   0.00     0.00   0.00   0.00     0.00   0.00   0.00
  12   1     0.29   0.07   0.00     0.00   0.00   0.00     0.00   0.00   0.00
  13   7    -0.92  -0.23  -0.01     0.00   0.00   0.00     0.00   0.00   0.00
  14   1     0.00   0.00   0.00     0.00   0.00   0.00     0.00   0.00   0.00
  15   0     0.00   0.00   0.00     0.00   0.00   0.00     0.00   0.00   0.00
  16   0     0.01   0.00   0.00     0.00   0.00   0.00     0.00   0.00   0.00
  17   0     0.00   0.00  -0.01     0.00   0.00   0.00     0.00   0.00   0.00
  18   0     0.00   0.00   0.01     0.00   0.00   0.00     0.00   0.00   0.00
  19   0    -0.02   0.00   0.00     0.00   0.00   0.00     0.00   0.00   0.00
  20   0     0.00   0.00   0.00     0.18   0.08  -0.10     0.11  -0.29  -0.02
  21   0     0.00   0.00   0.00    -0.11  -0.67   0.15     0.09   0.65  -0.14
  22   0     0.00   0.00   0.00    -0.52   0.40   0.23    -0.49   0.40   0.22




--------------------------------------------------------------------------------
  Vibrational properties (for cluster):  Temperature  =       0.000 K
--------------------------------------------------------------------------------
  Zero point energy             =         4.714639 eV
--------------------------------------------------------------------------------

  Vibrational density of states : 

--------------------------------------------------------------------------------
 Frequency     Density of States                                                
--------------------------------------------------------------------------------
    0.00000 |*********************************************                 0.048
   58.00000 |***************                                               0.016
  116.00000 |******************************                                0.032
  174.00000 |******************************                                0.032
  232.00000 |***************                                               0.016
  290.00000 |*********************************************                 0.048
  348.00000 |***************                                               0.016
  406.00000 |******************************                                0.032
  464.00000 |******************************                                0.032
  522.00000 |***************                                               0.016
  580.00000 |*********************************************                 0.048
  638.00000 |***************                                               0.016
  696.00000 |******************************                                0.032
  754.00000 |                                                              0.000
  812.00000 |*********************************************                 0.048
  870.00000 |***************                                               0.016
  928.00000 |*********************************************                 0.048
  986.00000 |*********************************************                 0.048
 1044.00000 |******************************                                0.032
 1102.00000 |                                                              0.000
 1160.00000 |***************                                               0.016
 1218.00000 |***************                                               0.016
 1276.00000 |***************                                               0.016
 1334.00000 |************************************************************  0.063
 1392.00000 |******************************                                0.032
 1450.00000 |******************************                                0.032
 1508.00000 |***************                                               0.016
 1566.00000 |******************************                                0.032
 1624.00000 |******************************                                0.032
 1682.00000 |***************                                               0.016
 1740.00000 |                                                              0.000
 1798.00000 |***************                                               0.016
 1856.00000 |                                                              0.000
 1914.00000 |                                                              0.000
 1972.00000 |                                                              0.000
 2030.00000 |                                                              0.000
 2088.00000 |                                                              0.000
 2146.00000 |                                                              0.000
 2204.00000 |                                                              0.000
 2262.00000 |                                                              0.000
 2320.00000 |                                                              0.000
 2378.00000 |                                                              0.000
 2436.00000 |                                                              0.000
 2494.00000 |                                                              0.000
 2552.00000 |                                                              0.000
 2610.00000 |                                                              0.000
 2668.00000 |                                                              0.000
 2726.00000 |                                                              0.000
 2784.00000 |                                                              0.000
 2842.00000 |                                                              0.000
 2900.00000 |                                                              0.000
 2958.00000 |***************                                               0.016
 3016.00000 |                                                              0.000
 3074.00000 |******************************                                0.032
 3132.00000 |***************                                               0.016
 3190.00000 |*********************************************                 0.048
 3248.00000 |                                                              0.000
 3306.00000 |                                                              0.000
 3364.00000 |                                                              0.000
 3422.00000 |                                                              0.000
 3480.00000 |                                                              0.000
 3538.00000 |***************                                               0.016
 3596.00000 |                                                              0.000
 3654.00000 |***************                                               0.016
--------------------------------------------------------------------------------



  Time to end of optimisation =       0.2000 seconds


  Peak dynamic memory used =       0.69 MB 


  Timing analysis for GULP :

--------------------------------------------------------------------------------
  Task / Subroutine                                          Time (Seconds)
--------------------------------------------------------------------------------
  Calculation of real space energy and derivatives                0.0700
  Calculation of three-body energy and derivatives                0.0100
  Calculation of four-body energy and derivatives                 0.0300
--------------------------------------------------------------------------------
  Total CPU time                                                  0.2000
--------------------------------------------------------------------------------


  Dump file written as esempio_molecola.res          


  Job Finished at 20:51.12  2nd December   2010                               

