********************************************************************************
*                       GENERAL UTILITY LATTICE PROGRAM                        *
*                                 Julian Gale                                  *
*                      Nanochemistry Research Institute                        *
*             Curtin University of Technology, Western Australia               *
********************************************************************************
* Version = 3.0.1 * Last modified = 22nd March 2006                            *
********************************************************************************
*  optimise     - perform optimisation run                                     *
*  conp         - constant pressure calculation                                *
*  phonon       - calculate phonons for final geometry                         *
********************************************************************************

  Job Started  at 19:57.50 22nd March      2006                               

  Number of CPUs =     1


  Total number of configurations input =   1

********************************************************************************
*  Input for Configuration =   1                                               *
********************************************************************************

  Formula = Al12O18                                                     

  Number of irreducible atoms/shells =      30


  Total number atoms/shells =      30

  Dimensionality = 2               :  Surface



  Surface Cartesian vectors (Angstroms) :

        4.900000    0.000000    0.000000
       -2.450000    4.243524    0.000000

  Surface cell parameters (Angstroms/Degrees):

  a =       4.9000    alpha = 120.0000
  b =       4.9000

  Initial surface area   =     20.793270 Angs**2

  Initial surface dipole =     -0.000004 e.Angs

  Temperature of configuration = 0.0000     K 

  Mixed fractional/Cartesian coordinates of surface :

--------------------------------------------------------------------------------
   No.  Atomic       x           y          z         Charge      Occupancy
        Label      (Frac)      (Frac)     (Angs)        (e)         (Frac)  
--------------------------------------------------------------------------------
      1 Al    c    0.000000 *  0.000000 *   14.0879 *    3.0000    1.000000    
      2 O     c    0.293691 *  0.986707 *   12.6689 *   -2.0000    1.000000    
      3 O     c    0.013294 *  0.306984 *   12.6689 *   -2.0000    1.000000    
      4 O     c    0.693012 *  0.706307 *   12.6689 *   -2.0000    1.000000    
      5 O     c    0.037101 *  0.668916 *   14.8712 *   -2.0000    1.000000    
      6 O     c    0.331084 *  0.368184 *   14.8712 *   -2.0000    1.000000    
      7 O     c    0.631815 *  0.962899 *   14.8712 *   -2.0000    1.000000    
      8 Al    c    0.999997 *  0.999999 *   11.4131 *    3.0000    1.000000    
      9 Al    c    0.666667 *  0.333333 *   11.6897 *    3.0000    1.000000    
     10 Al    c    0.333333 *  0.666667 *   13.5241 *    3.0000    1.000000    
     11 Al    c    0.666667 *  0.333333 *   15.6219 *    3.0000    1.000000    
     12 Al    c    0.333333    0.666667     16.2675      3.0000    1.000000    
     13 O     c    0.339293 *  0.333113 *   10.6674 *   -2.0000    1.000000    
     14 O     c    0.666874 *  0.006180 *   10.6675 *   -2.0000    1.000000    
     15 O     c    0.993808 *  0.660688 *   10.6675 *   -2.0000    1.000000    
     16 O     c    0.962900 *  0.331084 *   17.0181 *   -2.0000    1.000000    
     17 O     c    0.668917 *  0.631815 *   17.0181 *   -2.0000    1.000000    
     18 O     c    0.368186 *  0.037101 *   17.0181 *   -2.0000    1.000000    
     19 Al    c    0.666667 *  0.333333 *   21.4798 *    3.0000    1.000000    
     20 Al    c    0.333333 *  0.666667 *   10.4096 *    3.0000    1.000000    
     21 Al    c    0.000001 *  0.999999 *   17.8015 *    3.0000    1.000000    
     22 Al    c    0.666667 *  0.333333 *   18.3653 *    3.0000    1.000000    
     23 O     c    0.660708 *  0.666886 *   21.2219 *   -2.0000    1.000000    
     24 O     c    0.333127 *  0.993820 *   21.2219 *   -2.0000    1.000000    
     25 O     c    0.006193 *  0.339312 *   21.2218 *   -2.0000    1.000000    
     26 O     c    0.706309 *  0.013292 *   19.2205 *   -2.0000    1.000000    
     27 O     c    0.986707 *  0.693016 *   19.2205 *   -2.0000    1.000000    
     28 O     c    0.306988 *  0.293692 *   19.2205 *   -2.0000    1.000000    
     29 Al    c    0.000004 *  0.000000 *   20.4763 *    3.0000    1.000000    
     30 Al    c    0.333333 *  0.666667 *   20.1997 *    3.0000    1.000000    
--------------------------------------------------------------------------------



********************************************************************************
*  General input information                                                   *
********************************************************************************

  Species output for all configurations : 

--------------------------------------------------------------------------------
  Species    Type    Atomic    Atomic    Charge       Radii (Angs)     Library
                     Number     Mass       (e)     Cova   Ionic  VDW   Symbol
--------------------------------------------------------------------------------
    Al       Core       13      26.98     3.0000   1.350  0.000  2.050          
    O        Core        8      16.00    -2.0000   0.730  0.000  1.360          
--------------------------------------------------------------------------------


  Lattice summation method               =    Ewald
  Accuracy factor for lattice sums       =    8.000


  Time limit = Infinity

  General interatomic potentials :

--------------------------------------------------------------------------------
Atom  Types   Potential         A         B         C         D     Cutoffs(Ang)
  1     2                                                            Min    Max 
--------------------------------------------------------------------------------
O    c Al   c Buckingham    0.241E+04 0.265     .000     .000       0.000 10.000
O    c O    c Buckingham     25.4     0.694     32.3     .000       0.000 12.000
--------------------------------------------------------------------------------

********************************************************************************
*  Output for configuration   1                                                *
********************************************************************************


  Components of energy : 

--------------------------------------------------------------------------------
  Interatomic potentials     =         177.37585688 eV
  Monopole - monopole (real) =        -552.90191229 eV
  Monopole - monopole (recip)=        -567.97575234 eV
  Monopole - monopole (total)=       -1120.87766463 eV
--------------------------------------------------------------------------------
  Total lattice energy       =        -943.50180775 eV
--------------------------------------------------------------------------------
  Total lattice energy       =          -91033.5017 kJ/(mole unit cells)
--------------------------------------------------------------------------------


  Number of variables =     90

  Maximum number of calculations  =          1000
  Maximum Hessian update interval =            10
  Maximum step size               =   1.000000000
  Maximum parameter tolerance     =   0.000010000
  Maximum function  tolerance     =   0.000010000
  Maximum gradient  tolerance     =   0.001000000
  Maximum gradient  component     =   0.010000000

  Symmetry not applied to optimisation

  Cell parameters to be optimised using strains

  Newton-Raphson optimiser to be used

  BFGS hessian update to be used

  Dumpfile to be written after every cycle

  Start of surface optimisation :

  Cycle:      0 Energy:      -943.501808  Gnorm:      0.083286  CPU:    0.110
  ** Hessian calculated **
  Cycle:      1 Energy:      -943.517876  Gnorm:      0.000451  CPU:    0.260


  **** Optimisation achieved ****


  Final energy =    -943.51787677 eV
  Final Gnorm  =       0.00000555

  Components of energy : 

--------------------------------------------------------------------------------
  Interatomic potentials     =         179.94480068 eV
  Monopole - monopole (real) =        -553.74589556 eV
  Monopole - monopole (recip)=        -569.71678190 eV
  Monopole - monopole (total)=       -1123.46267745 eV
--------------------------------------------------------------------------------
  Total lattice energy       =        -943.51787677 eV
--------------------------------------------------------------------------------
  Total lattice energy       =          -91035.0521 kJ/(mole unit cells)
--------------------------------------------------------------------------------

  Final fractional/Cartesian coordinates of atoms :

--------------------------------------------------------------------------------
   No.  Atomic        x           y          z          Radius
        Label       (Frac)      (Frac)     (Angs)       (Angs) 
--------------------------------------------------------------------------------
     1  Al    c     1.000000    1.000000   14.087864    0.000000
     2  O     c     0.293699    0.986712   12.668876    0.000000
     3  O     c     0.013288    0.306987   12.668876    0.000000
     4  O     c     0.693013    0.706301   12.668876    0.000000
     5  O     c     0.037101    0.668917   14.871240    0.000000
     6  O     c     0.331083    0.368185   14.871240    0.000000
     7  O     c     0.631815    0.962899   14.871240    0.000000
     8  Al    c     1.000000    1.000000   11.413037    0.000000
     9  Al    c     0.666667    0.333333   11.689733    0.000000
    10  Al    c     0.333333    0.666667   13.524058    0.000000
    11  Al    c     0.666667    0.333333   15.621925    0.000000
    12  Al    c     0.333333    0.666667   16.267455    0.000000
    13  O     c     0.339302    0.333121   10.667523    0.000000
    14  O     c     0.666879    0.006181   10.667523    0.000000
    15  O     c     0.993819    0.660698   10.667523    0.000000
    16  O     c     0.962899    0.331083   17.018140    0.000000
    17  O     c     0.668917    0.631815   17.018140    0.000000
    18  O     c     0.368185    0.037101   17.018140    0.000000
    19  Al    c     0.666667    0.333333   21.479718    0.000000
    20  Al    c     0.333333    0.666667   10.409661    0.000000
    21  Al    c     0.000000    0.000000   17.801516    0.000000
    22  Al    c     0.666667    0.333333   18.365322    0.000000
    23  O     c     0.660698    0.666879   21.221856    0.000000
    24  O     c     0.333121    0.993819   21.221856    0.000000
    25  O     c     0.006181    0.339302   21.221856    0.000000
    26  O     c     0.706301    0.013288   19.220504    0.000000
    27  O     c     0.986712    0.693013   19.220504    0.000000
    28  O     c     0.306987    0.293699   19.220504    0.000000
    29  Al    c     1.000000    0.000000   20.476343    0.000000
    30  Al    c     0.333333    0.666667   20.199647    0.000000
--------------------------------------------------------------------------------

  Final surface cell parameters and derivatives :

--------------------------------------------------------------------------------
       a            4.884997 Angstrom     dE/de1(xx)     0.000269 eV/strain
       b            4.884997 Angstrom     dE/de2(yy)     0.000263 eV/strain
       alpha      120.000000 Degrees      dE/de3(xy)    -0.000002 eV/strain
--------------------------------------------------------------------------------

  Surface cell area =     20.666134 Angs**2

  Final internal/Cartesian derivatives :

--------------------------------------------------------------------------------
   No.  Atomic          x             y             z           Radius
        Label          (eV)          (eV)       (eV/Angs)      (eV/Angs)
--------------------------------------------------------------------------------
      1 Al    c       0.000000      0.000000     -0.000017      0.000000
      2 O     c      -0.000069      0.000061     -0.000003      0.000000
      3 O     c       0.000009     -0.000070     -0.000003      0.000000
      4 O     c       0.000061      0.000010     -0.000003      0.000000
      5 O     c       0.000098     -0.000035      0.000001      0.000000
      6 O     c      -0.000063      0.000098      0.000001      0.000000
      7 O     c      -0.000036     -0.000063      0.000001      0.000000
      8 Al    c       0.000000      0.000000      0.000015      0.000000
      9 Al    c       0.000001      0.000000      0.000007      0.000000
     10 Al    c       0.000001     -0.000001      0.000010      0.000000
     11 Al    c       0.000000      0.000000      0.000024      0.000000
     12 Al    c       0.000000      0.000000      0.000000      0.000000
     13 O     c       0.000040     -0.000032     -0.000012      0.000000
     14 O     c      -0.000010      0.000041     -0.000012      0.000000
     15 O     c      -0.000036     -0.000009     -0.000012      0.000000
     16 O     c      -0.000098      0.000035     -0.000001      0.000000
     17 O     c       0.000063     -0.000098     -0.000001      0.000000
     18 O     c       0.000036      0.000063     -0.000001      0.000000
     19 Al    c      -0.000005      0.000002     -0.000016      0.000000
     20 Al    c       0.000004     -0.000001      0.000016      0.000000
     21 Al    c       0.000000      0.000000      0.000017      0.000000
     22 Al    c      -0.000001      0.000001     -0.000010      0.000000
     23 O     c      -0.000039      0.000032      0.000012      0.000000
     24 O     c       0.000010     -0.000041      0.000012      0.000000
     25 O     c       0.000037      0.000008      0.000012      0.000000
     26 O     c       0.000069     -0.000061      0.000003      0.000000
     27 O     c      -0.000009      0.000069      0.000003      0.000000
     28 O     c      -0.000060     -0.000010      0.000003      0.000000
     29 Al    c       0.000000      0.000000     -0.000015      0.000000
     30 Al    c      -0.000002      0.000001     -0.000007      0.000000
--------------------------------------------------------------------------------


  Born effective charge tensors : 

-------------------------------------------------------------------------------
  Atom             x           y             z
-------------------------------------------------------------------------------
   1 Al    x       3.0000      0.0000      0.0000
           y       0.0000      3.0000      0.0000
           z       0.0000      0.0000      3.0000
-------------------------------------------------------------------------------
   2 O     x      -2.0000      0.0000      0.0000
           y       0.0000     -2.0000      0.0000
           z       0.0000      0.0000     -2.0000
-------------------------------------------------------------------------------
   3 O     x      -2.0000      0.0000      0.0000
           y       0.0000     -2.0000      0.0000
           z       0.0000      0.0000     -2.0000
-------------------------------------------------------------------------------
   4 O     x      -2.0000      0.0000      0.0000
           y       0.0000     -2.0000      0.0000
           z       0.0000      0.0000     -2.0000
-------------------------------------------------------------------------------
   5 O     x      -2.0000      0.0000      0.0000
           y       0.0000     -2.0000      0.0000
           z       0.0000      0.0000     -2.0000
-------------------------------------------------------------------------------
   6 O     x      -2.0000      0.0000      0.0000
           y       0.0000     -2.0000      0.0000
           z       0.0000      0.0000     -2.0000
-------------------------------------------------------------------------------
   7 O     x      -2.0000      0.0000      0.0000
           y       0.0000     -2.0000      0.0000
           z       0.0000      0.0000     -2.0000
-------------------------------------------------------------------------------
   8 Al    x       3.0000      0.0000      0.0000
           y       0.0000      3.0000      0.0000
           z       0.0000      0.0000      3.0000
-------------------------------------------------------------------------------
   9 Al    x       3.0000      0.0000      0.0000
           y       0.0000      3.0000      0.0000
           z       0.0000      0.0000      3.0000
-------------------------------------------------------------------------------
  10 Al    x       3.0000      0.0000      0.0000
           y       0.0000      3.0000      0.0000
           z       0.0000      0.0000      3.0000
-------------------------------------------------------------------------------
  11 Al    x       3.0000      0.0000      0.0000
           y       0.0000      3.0000      0.0000
           z       0.0000      0.0000      3.0000
-------------------------------------------------------------------------------
  12 Al    x       3.0000      0.0000      0.0000
           y       0.0000      3.0000      0.0000
           z       0.0000      0.0000      3.0000
-------------------------------------------------------------------------------
  13 O     x      -2.0000      0.0000      0.0000
           y       0.0000     -2.0000      0.0000
           z       0.0000      0.0000     -2.0000
-------------------------------------------------------------------------------
  14 O     x      -2.0000      0.0000      0.0000
           y       0.0000     -2.0000      0.0000
           z       0.0000      0.0000     -2.0000
-------------------------------------------------------------------------------
  15 O     x      -2.0000      0.0000      0.0000
           y       0.0000     -2.0000      0.0000
           z       0.0000      0.0000     -2.0000
-------------------------------------------------------------------------------
  16 O     x      -2.0000      0.0000      0.0000
           y       0.0000     -2.0000      0.0000
           z       0.0000      0.0000     -2.0000
-------------------------------------------------------------------------------
  17 O     x      -2.0000      0.0000      0.0000
           y       0.0000     -2.0000      0.0000
           z       0.0000      0.0000     -2.0000
-------------------------------------------------------------------------------
  18 O     x      -2.0000      0.0000      0.0000
           y       0.0000     -2.0000      0.0000
           z       0.0000      0.0000     -2.0000
-------------------------------------------------------------------------------
  19 Al    x       3.0000      0.0000      0.0000
           y       0.0000      3.0000      0.0000
           z       0.0000      0.0000      3.0000
-------------------------------------------------------------------------------
  20 Al    x       3.0000      0.0000      0.0000
           y       0.0000      3.0000      0.0000
           z       0.0000      0.0000      3.0000
-------------------------------------------------------------------------------
  21 Al    x       3.0000      0.0000      0.0000
           y       0.0000      3.0000      0.0000
           z       0.0000      0.0000      3.0000
-------------------------------------------------------------------------------
  22 Al    x       3.0000      0.0000      0.0000
           y       0.0000      3.0000      0.0000
           z       0.0000      0.0000      3.0000
-------------------------------------------------------------------------------
  23 O     x      -2.0000      0.0000      0.0000
           y       0.0000     -2.0000      0.0000
           z       0.0000      0.0000     -2.0000
-------------------------------------------------------------------------------
  24 O     x      -2.0000      0.0000      0.0000
           y       0.0000     -2.0000      0.0000
           z       0.0000      0.0000     -2.0000
-------------------------------------------------------------------------------
  25 O     x      -2.0000      0.0000      0.0000
           y       0.0000     -2.0000      0.0000
           z       0.0000      0.0000     -2.0000
-------------------------------------------------------------------------------
  26 O     x      -2.0000      0.0000      0.0000
           y       0.0000     -2.0000      0.0000
           z       0.0000      0.0000     -2.0000
-------------------------------------------------------------------------------
  27 O     x      -2.0000      0.0000      0.0000
           y       0.0000     -2.0000      0.0000
           z       0.0000      0.0000     -2.0000
-------------------------------------------------------------------------------
  28 O     x      -2.0000      0.0000      0.0000
           y       0.0000     -2.0000      0.0000
           z       0.0000      0.0000     -2.0000
-------------------------------------------------------------------------------
  29 Al    x       3.0000      0.0000      0.0000
           y       0.0000      3.0000      0.0000
           z       0.0000      0.0000      3.0000
-------------------------------------------------------------------------------
  30 Al    x       3.0000      0.0000      0.0000
           y       0.0000      3.0000      0.0000
           z       0.0000      0.0000      3.0000
-------------------------------------------------------------------------------



  Phonon Calculation : 

  Number of k points for this configuration =    1

--------------------------------------------------------------------------------
  K point   1 =   0.000000  0.000000  0.000000  Weight =    1.000
--------------------------------------------------------------------------------

  Frequencies (cm-1) [NB: Negative implies an imaginary mode]:

    0.00    0.00    0.00   62.14   62.14  120.39  120.39  155.36  208.75
  208.75  214.24  214.24  222.85  222.85  269.58  278.21  295.09  301.07
  302.97  302.97  340.63  347.82  352.05  352.05  390.83  390.83  392.75
  392.75  414.74  414.74  426.07  430.05  445.79  445.79  473.11  473.11
  489.98  489.98  495.86  495.86  496.54  517.68  517.68  518.42  518.42
  520.76  534.32  534.32  547.29  572.20  575.90  575.90  612.23  612.23
  643.51  656.08  676.61  676.61  684.15  684.15  689.39  693.49  761.98
  761.98  762.01  762.01  779.74  809.87  811.79  811.79  820.71  820.71
  827.20  830.43  830.43  840.29  849.71  849.71  909.48  915.55  985.46
  986.36  986.36  986.37  986.37 1054.68 1165.40 1248.27 1292.08 1306.58


--------------------------------------------------------------------------------
  Phonon properties (per mole of unit cells): Temperature =      0.000 K
--------------------------------------------------------------------------------
  Zero point energy            =        3.150955 eV
--------------------------------------------------------------------------------

  Time to end of optimisation =       0.4200 seconds


  Peak dynamic memory used =       0.66 MB 


  Timing analysis for Gulp :

--------------------------------------------------------------------------------
  Task / Subroutine                                          Time (Seconds)
--------------------------------------------------------------------------------
  Calculation of reciprocal space energy and derivatives          0.1400
  Calculation of real space energy and derivatives                0.2600
--------------------------------------------------------------------------------
  Total CPU time                                                  0.4200
--------------------------------------------------------------------------------


  Dump file written as example31.res                 


  Job Finished at 19:57.50 22nd March      2006                               

