********************************************************************************
*                       GENERAL UTILITY LATTICE PROGRAM                        *
*                                 Julian Gale                                  *
*                      Nanochemistry Research Institute                        *
*             Curtin University of Technology, Western Australia               *
********************************************************************************
* Version = 3.0.1 * Last modified = 22nd March 2006                            *
********************************************************************************
*  optimise     - perform optimisation run                                     *
*  conp         - constant pressure calculation                                *
*  property     - calculate properties for final geometry                      *
********************************************************************************
* alumina test file                                                            *
********************************************************************************


  Job Started  at 10:20.40 22nd March      2006                               

  Number of CPUs =     1


  Total number of configurations input =   1

********************************************************************************
*  Input for Configuration =   1                                               *
********************************************************************************

  Formula = Al4O6                                                       

  Number of irreducible atoms/shells =       4


  Total number atoms/shells =      20

  Dimensionality = 3               :  Bulk   


  Symmetry :

  Crystal family                   :  Hexagonal   
  Crystal class  (Groth - 1921)    :  Ditrigonal Scalenohedral             

  Space group (centrosymmetric)    :  R -3 C          

  Patterson group                  :  R -3 m   

  Cartesian lattice vectors (Angstroms) :

        2.380100    1.374151    4.331100
       -2.380100    1.374151    4.331100
        0.000000   -2.748303    4.331100

  Primitive cell parameters :            Full cell parameters :

  a =   5.1295    alpha =  55.2915       a =   4.7602    alpha =  90.0000
  b =   5.1295    beta  =  55.2915       b =   4.7602    beta  =  90.0000
  c =   5.1295    gamma =  55.2915       c =  12.9933    gamma = 120.0000

  Initial volumes (Angstroms**3):

  Primitive cell =          84.992234    Full cell =         254.976701

  Temperature of configuration = 0.0000     K 

  Pressure of configuration =         0.000 GPa 

  Fractional coordinates of asymmetric unit :

--------------------------------------------------------------------------------
   No.  Atomic       x           y          z         Charge      Occupancy
        Label      (Frac)      (Frac)     (Frac)        (e)         (Frac)  
--------------------------------------------------------------------------------
      1 Al    c    0.000000    0.000000    0.352160 *    0.0430    1.000000    
      2 O     c    0.306240 *  0.000000    0.250000      0.5130    1.000000    
      3 Al    s    0.000000    0.000000    0.352160 *    2.9570    1.000000    
      4 O     s    0.306240 *  0.000000    0.250000     -2.5130    1.000000    
--------------------------------------------------------------------------------


  Constraints : 

--------------------------------------------------------------------------------
  Constraint no.      Unconstrained     Constrained    Coefficient    Offset
                         Variable         Variable
--------------------------------------------------------------------------------
           1              Strain 1        Strain 2       1.00000      0.0000
--------------------------------------------------------------------------------


********************************************************************************
*  General input information                                                   *
********************************************************************************

  Species output for all configurations : 

--------------------------------------------------------------------------------
  Species    Type    Atomic    Atomic    Charge       Radii (Angs)     Library
                     Number     Mass       (e)     Cova   Ionic  VDW   Symbol
--------------------------------------------------------------------------------
    Al       Core       13      26.98     0.0430   1.350  0.000  2.050          
    Al       Shell      13      26.98     2.9570   1.350  0.000  2.050          
    O        Core        8      16.00     0.5130   0.730  0.000  1.360          
    O        Shell       8      16.00    -2.5130   0.730  0.000  1.360          
--------------------------------------------------------------------------------


  Lattice summation method               =    Ewald
  Accuracy factor for lattice sums       =    8.000


  Time limit = Infinity

  General interatomic potentials :

--------------------------------------------------------------------------------
Atom  Types   Potential         A         B         C         D     Cutoffs(Ang)
  1     2                                                            Min    Max 
--------------------------------------------------------------------------------
O    s Al   s Buckingham    0.241E+04 0.265     .000     .000       0.000 10.000
O    s O    s Buckingham     25.4     0.694     32.3     .000       0.000 12.000
Al   c Al   s Spring (c-s)   404.     0.000     .000     .000       0.000  0.600
O    c O    s Spring (c-s)   20.5     0.000     .000     .000       0.000  0.600
--------------------------------------------------------------------------------

********************************************************************************
*  Output for configuration   1                                                *
********************************************************************************


  Components of energy : 

--------------------------------------------------------------------------------
  Interatomic potentials     =          63.08516869 eV
  Monopole - monopole (real) =        -126.96762275 eV
  Monopole - monopole (recip)=        -250.81566589 eV
  Monopole - monopole (total)=        -377.78328864 eV
--------------------------------------------------------------------------------
  Total lattice energy : 
    Primitive unit cell      =        -314.69811995 eV
    Non-primitive unit cell  =        -944.09435984 eV
--------------------------------------------------------------------------------
  Total lattice energy (in kJmol-1): 
    Primitive unit cell      =          -30363.5580 kJ/(mole unit cells)
    Non-primitive unit cell  =          -91090.6739 kJ/(mole unit cells)
--------------------------------------------------------------------------------


  Number of variables =      6

  Maximum number of calculations  =          1000
  Maximum Hessian update interval =            10
  Maximum step size               =   1.000000000
  Maximum parameter tolerance     =   0.000010000
  Maximum function  tolerance     =   0.000010000
  Maximum gradient  tolerance     =   0.001000000
  Maximum gradient  component     =   0.010000000

  Symmetry constrained optimisation

  Symmetry used for second derivatives

  Cell parameters to be optimised using strains

  Newton-Raphson optimiser to be used

  BFGS hessian update to be used

  Start of bulk optimisation :

  Cycle:      0 Energy:      -314.698120  Gnorm:     19.420559  CPU:    0.030
  ** Hessian calculated **
  Cycle:      1 Energy:      -315.172728  Gnorm:      0.362450  CPU:    0.060
  Cycle:      2 Energy:      -315.173274  Gnorm:      0.057895  CPU:    0.080
  Cycle:      3 Energy:      -315.173282  Gnorm:      0.002411  CPU:    0.100


  **** Optimisation achieved ****


  Final energy =    -315.17328190 eV
  Final Gnorm  =       0.00005993

  Components of energy : 

--------------------------------------------------------------------------------
  Interatomic potentials     =          59.49163674 eV
  Monopole - monopole (real) =         -65.58576674 eV
  Monopole - monopole (recip)=        -309.07915190 eV
  Monopole - monopole (total)=        -374.66491864 eV
--------------------------------------------------------------------------------
  Total lattice energy : 
    Primitive unit cell      =        -315.17328190 eV
    Non-primitive unit cell  =        -945.51984570 eV
--------------------------------------------------------------------------------
  Total lattice energy (in kJmol-1): 
    Primitive unit cell      =          -30409.4038 kJ/(mole unit cells)
    Non-primitive unit cell  =          -91228.2115 kJ/(mole unit cells)
--------------------------------------------------------------------------------

  Final asymmetric unit coordinates :

--------------------------------------------------------------------------------
   No.  Atomic        x           y           z         Radius
        Label       (Frac)      (Frac)      (Frac)       (Angs) 
--------------------------------------------------------------------------------
     1  Al    c     0.000000    0.000000    0.356233    0.000000
     2  O     c     0.295773    0.000000    0.250000    0.000000
     3  Al    s     0.000000    0.000000    0.356234    0.000000
     4  O     s     0.297426    0.000000    0.250000    0.000000
--------------------------------------------------------------------------------

  Final cell parameters and derivatives :

--------------------------------------------------------------------------------
       a            5.153230 Angstrom     dE/de1(xx)     0.000090 eV/strain
       b            5.153230 Angstrom     dE/de2(yy)     0.000000 eV/strain
       c            5.153230 Angstrom     dE/de3(zz)     0.000078 eV/strain
       alpha       55.766721 Degrees      dE/de4(yz)     0.000000 eV/strain
       beta        55.766721 Degrees      dE/de5(xz)     0.000000 eV/strain
       gamma       55.766721 Degrees      dE/de6(xy)     0.000000 eV/strain
--------------------------------------------------------------------------------

  Primitive cell volume =            87.266180 Angs**3

  Density of cell =      3.880341 g/cm**3

  Non-primitive lattice parameters :

  a    =     4.820055  b   =     4.820055  c    =    13.011659
  alpha=    90.000000  beta=    90.000000  gamma=   120.000000

  Non-primitive cell volume =           261.798540 Angs**3


  Final internal derivatives :

--------------------------------------------------------------------------------
   No.  Atomic          x             y             z           Radius
        Label          (eV)          (eV)          (eV)        (eV/Angs)
--------------------------------------------------------------------------------
      1 Al    c       0.000000      0.000000     -0.000007      0.000000
      2 O     c      -0.000215      0.000000      0.000000      0.000000
      3 Al    s       0.000000      0.000000     -0.000202      0.000000
      4 O     s       0.000167      0.000000      0.000000      0.000000
--------------------------------------------------------------------------------


  Born effective charge tensors : 

-------------------------------------------------------------------------------
  Atom             x           y             z
-------------------------------------------------------------------------------
   1 Al    x       2.4472     -0.3703      0.0000
           y       0.3703      2.4472      0.0000
           z       0.0000      0.0000      2.7488
-------------------------------------------------------------------------------
   2 O     x      -1.7494      0.0000      0.0000
           y       0.0000     -1.5135      0.2579
           z       0.0000      0.3340     -1.8325
-------------------------------------------------------------------------------




  Elastic Constant Matrix: (Units=GPa)

-------------------------------------------------------------------------------
  Indices      1         2         3         4         5         6    
-------------------------------------------------------------------------------
       1    607.5114  322.9447  182.3236   44.5914    0.0000    0.0000
       2    322.9447  607.5114  182.3236  -44.5914    0.0000    0.0000
       3    182.3236  182.3236  606.3487    0.0000    0.0000    0.0000
       4     44.5914  -44.5914    0.0000   95.6290    0.0000    0.0000
       5      0.0000    0.0000    0.0000    0.0000   95.6290   44.5914
       6      0.0000    0.0000    0.0000    0.0000   44.5914  142.2834
-------------------------------------------------------------------------------


  Elastic Compliance Matrix: (Units=1/GPa)

-------------------------------------------------------------------------------
  Indices      1         2         3         4         5         6    
-------------------------------------------------------------------------------
       1    0.002667 -0.001449 -0.000366 -0.001919  0.000000  0.000000
       2   -0.001449  0.002667 -0.000366  0.001919  0.000000  0.000000
       3   -0.000366 -0.000366  0.001870  0.000000  0.000000  0.000000
       4   -0.001919  0.001919  0.000000  0.012247  0.000000  0.000000
       5    0.000000  0.000000  0.000000  0.000000  0.012247 -0.003838
       6    0.000000  0.000000  0.000000  0.000000 -0.003838  0.008231
-------------------------------------------------------------------------------

 Mechanical properties :

-------------------------------------------------------------------------------
  Convention :                    Reuss         Voigt         Hill
-------------------------------------------------------------------------------
  Bulk  Modulus (GPa)     =     352.01320     355.17281     353.59301
  Shear Modulus (GPa)     =     110.52771     142.29361     126.41066
-------------------------------------------------------------------------------
  Velocity S-wave (km/s)  =      16.87721      19.14951      18.04916
  Velocity P-wave (km/s)  =      35.87419      37.47335      36.68249
-------------------------------------------------------------------------------
  Compressibility (1/GPa) =    0.00284080
-------------------------------------------------------------------------------
  Stress axis :                     x             y             z
-------------------------------------------------------------------------------
  Youngs Moduli (GPa)     =     374.96341     374.96341     534.89580
-------------------------------------------------------------------------------
  Poissons Ratio (x)      =                     0.54318       0.19595
  Poissons Ratio (y)      =       0.54318                     0.19595
  Poissons Ratio (z)      =       0.13736       0.13736
-------------------------------------------------------------------------------


  Piezoelectric Strain Matrix: (Units=C/m**2)

-------------------------------------------------------------------------------
  Indices      1         2         3         4         5         6    
-------------------------------------------------------------------------------
       x     0.00000   0.00000   0.00000   0.00000   0.00000   0.00000
       y     0.00000   0.00000   0.00000   0.00000   0.00000   0.00000
       z     0.00000   0.00000   0.00000   0.00000   0.00000   0.00000
-------------------------------------------------------------------------------


  Piezoelectric Stress Matrix: (Units=10**-11 C/N)

-------------------------------------------------------------------------------
  Indices      1         2         3         4         5         6    
-------------------------------------------------------------------------------
       x     0.00000   0.00000   0.00000   0.00000   0.00000   0.00000
       y     0.00000   0.00000   0.00000   0.00000   0.00000   0.00000
       z     0.00000   0.00000   0.00000   0.00000   0.00000   0.00000
-------------------------------------------------------------------------------


  Static dielectric constant tensor : 

-------------------------------------------------------------------------------
              x         y         z
-------------------------------------------------------------------------------
       x    11.29308   0.00000   0.00000
       y     0.00000  11.29308   0.00000
       z     0.00000   0.00000  16.36468
--------------------------------------------------------------------------------

  High frequency dielectric constant tensor : 

-------------------------------------------------------------------------------
              x         y         z
-------------------------------------------------------------------------------
       x     5.63011   0.00000   0.00000
       y     0.00000   5.63011   0.00000
       z     0.00000   0.00000   6.08934
-------------------------------------------------------------------------------

  Static refractive indices : 

-------------------------------------------------------------------------------
    1 =    3.36052      2 =    3.36052      3 =    4.04533
-------------------------------------------------------------------------------

  High frequency refractive indices : 

-------------------------------------------------------------------------------
    1 =    2.37278      2 =    2.37278      3 =    2.46766
-------------------------------------------------------------------------------


  Time to end of optimisation =       0.1800 seconds


  Peak dynamic memory used =       0.54 MB 


  Timing analysis for Gulp :

--------------------------------------------------------------------------------
  Task / Subroutine                                          Time (Seconds)
--------------------------------------------------------------------------------
  Calculation of reciprocal space energy and derivatives          0.0200
  Calculation of reciprocal space energy using symmetry           0.0300
  Calculation of real space energy and derivatives                0.0500
  Calculation of real space energy using symmetry                 0.0700
--------------------------------------------------------------------------------
  Total CPU time                                                  0.1800
--------------------------------------------------------------------------------


  Marvin file written as example1.mvn                  
  XR file written as example1.xr                   


  Job Finished at 10:20.41 22nd March      2006                               

