********************************************************************************
*                       GENERAL UTILITY LATTICE PROGRAM                        *
*                                 Julian Gale                                  *
*                      Nanochemistry Research Institute                        *
*             Curtin University of Technology, Western Australia               *
********************************************************************************
* Version = 3.0.1 * Last modified = 22nd March 2006                            *
********************************************************************************
*  optimise     - perform optimisation run                                     *
*  conv         - constant volume calculation                                  *
********************************************************************************

  Job Started  at 19:55.49 22nd March      2006                               

  Number of CPUs =     1


  Total number of configurations input =   1

********************************************************************************
*  Input for Configuration =   1                                               *
********************************************************************************

  Formula = Mg6O6                                                       

  Number of irreducible atoms/shells =      18


  Total number atoms/shells =      18

  Dimensionality = 2               :  Surface



  Surface Cartesian vectors (Angstroms) :

        4.235384    0.000000    0.000000
        0.000000    4.235384    0.000000

  Surface cell parameters (Angstroms/Degrees):

  a =       4.2354    alpha =  90.0000
  b =       4.2354

  Initial surface area   =     17.938478 Angs**2

  Initial surface dipole =      0.000000 e.Angs

  Temperature of configuration = 0.0000     K 

  Mixed fractional/Cartesian coordinates of surface :

--------------------------------------------------------------------------------
   No.  Atomic       x           y          z         Charge      Occupancy
        Label      (Frac)      (Frac)     (Angs)        (e)         (Frac)  
--------------------------------------------------------------------------------
  Region 1 : 
--------------------------------------------------------------------------------
      1 Mg    c    0.500000 *  0.500000 *   -4.2354 *    2.0000    1.000000    
      2 Mg    c    0.000000 *  0.000000 *   -4.2354 *    2.0000    1.000000    
      3 O     c    0.500000 *  0.000000 *   -4.2354 *    0.9345    1.000000    
      4 O     c    0.000000 *  0.500000 *   -4.2354 *    0.9345    1.000000    
     13 O     s    0.500000 *  0.000000 *   -4.2354 *   -2.9345    1.000000    
     14 O     s    0.000000 *  0.500000 *   -4.2354 *   -2.9345    1.000000    
--------------------------------------------------------------------------------
  Region 2 :  Rigid translation fixed in xyz
--------------------------------------------------------------------------------
      5 Mg    c    0.500000    0.000000     -6.3531      2.0000    1.000000    
      6 Mg    c    0.000000    0.500000     -6.3531      2.0000    1.000000    
      7 O     c    0.500000    0.500000     -6.3531      0.9345    1.000000    
      8 O     c    0.000000    0.000000     -6.3531      0.9345    1.000000    
     15 O     s    0.500000    0.500000     -6.3531     -2.9345    1.000000    
     16 O     s    0.000000    0.000000     -6.3531     -2.9345    1.000000    
--------------------------------------------------------------------------------
  Region 3 :  Rigid translation fixed in xy 
--------------------------------------------------------------------------------
      9 Mg    c    0.502361    0.004722     -2.1177 *    2.0000    1.000000    
     10 Mg    c    0.002361    0.504722     -2.1177      2.0000    1.000000    
     11 O     c    0.502361    0.504722     -2.1177      0.9345    1.000000    
     12 O     c    0.002361    0.004722     -2.1177      0.9345    1.000000    
     17 O     s    0.502361    0.504722     -2.1177     -2.9345    1.000000    
     18 O     s    0.002361    0.004722     -2.1177     -2.9345    1.000000    
--------------------------------------------------------------------------------


  Constraints : 

--------------------------------------------------------------------------------
  Constraint no.      Unconstrained     Constrained    Coefficient    Offset
                         Variable         Variable
--------------------------------------------------------------------------------
           1                 9 z            10 z         1.00000      0.0000
           2                 9 z            11 z         1.00000      0.0000
           3                 9 z            12 z         1.00000      0.0000
           4                 9 z            17 z         1.00000      0.0000
           5                 9 z            18 z         1.00000      0.0000
--------------------------------------------------------------------------------


********************************************************************************
*  General input information                                                   *
********************************************************************************

  Species output for all configurations : 

--------------------------------------------------------------------------------
  Species    Type    Atomic    Atomic    Charge       Radii (Angs)     Library
                     Number     Mass       (e)     Cova   Ionic  VDW   Symbol
--------------------------------------------------------------------------------
    Mg       Core       12      24.31     2.0000   1.100  0.000  1.640          
    O        Core        8      16.00     0.9345   0.730  0.000  1.360          
    O        Shell       8      16.00    -2.9345   0.730  0.000  1.360          
--------------------------------------------------------------------------------


  Lattice summation method               =    Ewald
  Accuracy factor for lattice sums       =    8.000


  Time limit = Infinity

  General interatomic potentials :

--------------------------------------------------------------------------------
Atom  Types   Potential         A         B         C         D     Cutoffs(Ang)
  1     2                                                            Min    Max 
--------------------------------------------------------------------------------
Mg   c O    s Buckingham    0.135E+04 0.298     .000     .000       0.000  8.000
O    s O    s Buckingham    0.228E+05 0.149     20.4     .000       0.000  8.000
O    c O    s Spring (c-s)   51.7     0.000     .000     .000       0.000  0.600
--------------------------------------------------------------------------------

********************************************************************************
*  Output for configuration   1                                                *
********************************************************************************


  Components of energy : 

--------------------------------------------------------------------------------
  Interatomic potentials     =          34.97709198 eV
  Monopole - monopole (real) =        -115.03130169 eV
  Monopole - monopole (recip)=        -163.05774366 eV
  Monopole - monopole (total)=        -278.08904536 eV
--------------------------------------------------------------------------------
  Total lattice energy       =        -243.11195337 eV
--------------------------------------------------------------------------------
  Total lattice energy       =          -23456.5872 kJ/(mole unit cells)
--------------------------------------------------------------------------------


  Number of variables =     19

  Maximum number of calculations  =          1000
  Maximum Hessian update interval =            10
  Maximum step size               =   1.000000000
  Maximum parameter tolerance     =   0.000010000
  Maximum function  tolerance     =   0.000010000
  Maximum gradient  tolerance     =   0.001000000
  Maximum gradient  component     =   0.010000000

  Symmetry not applied to optimisation

  Newton-Raphson optimiser to be used

  BFGS hessian update to be used

  Dumpfile to be written after every cycle

  Start of surface optimisation :

  Cycle:      0 Energy:      -243.111953  Gnorm:      0.040576  CPU:    0.050
  ** Hessian calculated **
  Cycle:      1 Energy:      -243.119218  Gnorm:      0.000624  CPU:    0.100


  **** Optimisation achieved ****


  Final energy =    -243.11921929 eV
  Final Gnorm  =       0.00001863

  Components of energy : 

--------------------------------------------------------------------------------
  Interatomic potentials     =          35.51765984 eV
  Monopole - monopole (real) =        -115.57703525 eV
  Monopole - monopole (recip)=        -163.05984388 eV
  Monopole - monopole (total)=        -278.63687913 eV
--------------------------------------------------------------------------------
  Total lattice energy       =        -243.11921929 eV
--------------------------------------------------------------------------------
  Total lattice energy       =          -23457.2882 kJ/(mole unit cells)
--------------------------------------------------------------------------------

  Final fractional/Cartesian coordinates of atoms :

--------------------------------------------------------------------------------
   No.  Atomic        x           y          z          Radius
        Label       (Frac)      (Frac)     (Angs)       (Angs) 
--------------------------------------------------------------------------------
     1  Mg    c     0.501181    0.502362   -4.253086    0.000000
     2  Mg    c     0.001181    0.002362   -4.253086    0.000000
     3  O     c     0.501181    0.002362   -4.253086    0.000000
     4  O     c     0.001181    0.502362   -4.253086    0.000000
     5  Mg    c     0.500000    0.000000   -6.353080    0.000000
     6  Mg    c     0.000000    0.500000   -6.353080    0.000000
     7  O     c     0.500000    0.500000   -6.353080    0.000000
     8  O     c     0.000000    0.000000   -6.353080    0.000000
     9  Mg    c     0.502361    0.004722   -2.153091    0.000000
    10  Mg    c     0.002361    0.504722   -2.153091    0.000000
    11  O     c     0.502361    0.504722   -2.153091    0.000000
    12  O     c     0.002361    0.004722   -2.153091    0.000000
    13  O     s     0.501181    0.002362   -4.253086    0.000000
    14  O     s     0.001181    0.502362   -4.253086    0.000000
    15  O     s     0.500000    0.500000   -6.353080    0.000000
    16  O     s     0.000000    0.000000   -6.353080    0.000000
    17  O     s     0.502361    0.504722   -2.153091    0.000000
    18  O     s     0.002361    0.004722   -2.153091    0.000000
--------------------------------------------------------------------------------

  Final internal/Cartesian derivatives :

--------------------------------------------------------------------------------
   No.  Atomic          x             y             z           Radius
        Label          (eV)          (eV)       (eV/Angs)      (eV/Angs)
--------------------------------------------------------------------------------
      1 Mg    c       0.000050      0.000098     -0.000004      0.000000
      2 Mg    c       0.000049      0.000098     -0.000004      0.000000
      3 O     c      -0.000028     -0.000075     -0.000002      0.000000
      4 O     c      -0.000042     -0.000064     -0.000002      0.000000
      5 Mg    c       0.000000      0.000000      0.000000      0.000000
      6 Mg    c       0.000000      0.000000      0.000000      0.000000
      7 O     c       0.000000      0.000000      0.000000      0.000000
      8 O     c       0.000000      0.000000      0.000000      0.000000
      9 Mg    c       0.000000      0.000000      0.000194      0.000000
     10 Mg    c       0.000000      0.000000      0.000000      0.000000
     11 O     c       0.000000      0.000000      0.000000      0.000000
     12 O     c       0.000000      0.000000      0.000000      0.000000
     13 O     s       0.000065      0.000148     -0.000001      0.000000
     14 O     s       0.000079      0.000137     -0.000001      0.000000
     15 O     s       0.000000      0.000000      0.000000      0.000000
     16 O     s       0.000000      0.000000      0.000000      0.000000
     17 O     s       0.000000      0.000000      0.000000      0.000000
     18 O     s       0.000000      0.000000      0.000000      0.000000
--------------------------------------------------------------------------------


  Time to end of optimisation =       0.1600 seconds


  Peak dynamic memory used =       0.51 MB 


  Timing analysis for Gulp :

--------------------------------------------------------------------------------
  Task / Subroutine                                          Time (Seconds)
--------------------------------------------------------------------------------
  Calculation of reciprocal space energy and derivatives          0.0500
  Calculation of real space energy and derivatives                0.0900
--------------------------------------------------------------------------------
  Total CPU time                                                  0.1600
--------------------------------------------------------------------------------


  Dump file written as example27.res                 


  Job Finished at 19:55.49 22nd March      2006                               

