********************************************************************************
*                       GENERAL UTILITY LATTICE PROGRAM                        *
*                                 Julian Gale                                  *
*                      Nanochemistry Research Institute                        *
*             Curtin University of Technology, Western Australia               *
********************************************************************************
* Version = 3.1   * Last modified = 23rd May 2007                              *
********************************************************************************
*  optimise     - perform optimisation run                                     *
*  conp         - constant pressure calculation                                *
*  phonon       - calculate phonons for final geometry                         *
*  eigenvectors - output phonon eigenvectors                                   *
*  intensity    - calculate phonon eigenvectors and estimate IR intensities    *
*  torsion      - calculate torsion angles for valid four body terms           *
********************************************************************************

  Job Started  at 20:51.44  2nd December   2010                               

  Number of CPUs =     1


  Total number of configurations input =   1

********************************************************************************
*  Input for Configuration =   1                                               *
********************************************************************************

  Formula = Si3O6                                                       

  Number of irreducible atoms/shells =       3


  Total number atoms/shells =      15

  Dimensionality = 3               :  Bulk   


  Symmetry :

  Crystal family                   :  Hexagonal   
  Crystal class  (Groth - 1921)    :  Trigonal Trapezohedral               

  Space group (noncentrosymmetric) :  P 31 2 1        

  Patterson group                  :  P -3 m 1 

  Cartesian lattice vectors (Angstroms) :

        4.914730    0.000000    0.000000
       -2.457365    4.256281    0.000000
        0.000000    0.000000    5.406570

  Cell parameters (Angstroms/Degrees):

  a =       4.9147    alpha =  90.0000
  b =       4.9147    beta  =  90.0000
  c =       5.4066    gamma = 120.0000

  Initial cell volume =         113.097184 Angs**3

  Temperature of configuration =  0.000     K 

  Pressure of configuration =         0.000 GPa 

  Fractional coordinates of asymmetric unit :

--------------------------------------------------------------------------------
   No.  Atomic       x           y          z         Charge      Occupancy
        Label      (Frac)      (Frac)     (Frac)        (e)         (Frac)  
--------------------------------------------------------------------------------
      1 Si    c    0.468200 *  0.000000    0.333333      4.0000    1.000000    
      2 O     c    0.413100 *  0.266100 *  0.213100 *    0.8690    1.000000    
      3 O     s    0.431813 *  0.264902 *  0.204106 *   -2.8690    1.000000    
--------------------------------------------------------------------------------


  Constraints : 

--------------------------------------------------------------------------------
  Constraint no.      Unconstrained     Constrained    Coefficient    Offset
                         Variable         Variable
--------------------------------------------------------------------------------
           1              Strain 1        Strain 2       1.00000      0.0000
--------------------------------------------------------------------------------


********************************************************************************
*  General input information                                                   *
********************************************************************************

  Species output for all configurations : 

--------------------------------------------------------------------------------
  Species    Type    Atomic    Atomic    Charge       Radii (Angs)     Library
                     Number     Mass       (e)     Cova   Ionic  VDW   Symbol
--------------------------------------------------------------------------------
    Si       Core       14      28.09     4.0000   1.200  0.000  2.100          
    O        Core        8      16.00     0.8690   0.730  0.000  1.360          
    O        Shell       8       0.00    -2.8690   0.730  0.000  1.360          
--------------------------------------------------------------------------------


  Lattice summation method               =    Ewald
  Accuracy factor for lattice sums       =    8.000


  Time limit = Infinity

  General interatomic potentials :

--------------------------------------------------------------------------------
Atom  Types   Potential         A         B         C         D     Cutoffs(Ang)
  1     2                                                            Min    Max 
--------------------------------------------------------------------------------
Si   c O    s General  0  6 0.128E+04 0.321     10.7      0.00      0.000  8.000
O    s O    s Buckingham    0.228E+05 0.149     27.9     0.00       0.000  8.000
O    c O    s Spring (c-s)   74.9      0.00     0.00     0.00       0.000  0.600
--------------------------------------------------------------------------------

  Potentials with energy / gradient boundary corrections : 

--------------------------------------------------------------------------------
    Potential       Atom1   Atom2    Type of correction
--------------------------------------------------------------------------------
    General  0  6   Si    c O     s  Gradient
--------------------------------------------------------------------------------

  General Three-body potentials :

  Harmonic form:

--------------------------------------------------------------------------------
Atom    Atom    Atom           Force Constants            Theta     Cutoffs  
  1       2       3     (eVrad**-2/eVrad**-3/eVrad**-4)   (deg)  1-2  1-3  2-3
--------------------------------------------------------------------------------
Si    c O     s O     s  2.097        0.0000    0.0000   109.470 1.80 3.20 0.00
                                                                 0.00 1.80 0.00
--------------------------------------------------------------------------------

********************************************************************************
*  Output for configuration   1                                                *
********************************************************************************


  Components of energy : 

--------------------------------------------------------------------------------
  Interatomic potentials     =        2404.52959746 Kcal/mol
  Three-body potentials      =           0.00000000 Kcal/mol
  Monopole - monopole (real) =       -2565.82997601 Kcal/mol
  Monopole - monopole (recip)=       -8743.95886638 kcal/mol
  Monopole - monopole (total)=      -11309.78884240 Kcal/mol
--------------------------------------------------------------------------------
  Total lattice energy       =        -386.17106576 eV
--------------------------------------------------------------------------------
  Total lattice energy       =          -37259.6047 kJ/(mole unit cells)
  Total lattice energy       =           -8905.2592 kcal/(mole unit cells)
--------------------------------------------------------------------------------


  Number of variables =      9

  Maximum number of calculations  =          1000
  Maximum Hessian update interval =            10
  Maximum step size               =   1.000000000
  Maximum parameter tolerance     =   0.000010000
  Maximum function  tolerance     =   0.000010000
  Maximum gradient  tolerance     =   0.001000000
  Maximum gradient  component     =   0.010000000

  Symmetry constrained optimisation

  Symmetry used for second derivatives

  Cell parameters to be optimised using strains

  Newton-Raphson optimiser to be used

  BFGS hessian update to be used

  Start of bulk optimisation :

  Cycle:      0 Energy:      -386.171066  Gnorm:      0.787886  CPU:    0.010
  ** Hessian calculated **
  Cycle:      1 Energy:      -386.212280  Gnorm:      0.402462  CPU:    0.010
  Cycle:      2 Energy:      -386.215784  Gnorm:      0.141857  CPU:    0.020
  Cycle:      3 Energy:      -386.216522  Gnorm:      0.042278  CPU:    0.020
  Cycle:      4 Energy:      -386.216530  Gnorm:      0.002656  CPU:    0.030


  **** Optimisation achieved ****


  Final energy =    -386.21653643 eV
  Final Gnorm  =       0.00080374

  Components of energy : 

--------------------------------------------------------------------------------
  Interatomic potentials     =        2456.05794218 Kcal/mol
  Three-body potentials      =           0.00000000 Kcal/mol
  Monopole - monopole (real) =       -2485.39464606 Kcal/mol
  Monopole - monopole (recip)=       -8876.97111291 kcal/mol
  Monopole - monopole (total)=      -11362.36575897 Kcal/mol
--------------------------------------------------------------------------------
  Total lattice energy       =        -386.21653643 eV
--------------------------------------------------------------------------------
  Total lattice energy       =          -37263.9919 kJ/(mole unit cells)
  Total lattice energy       =           -8906.3078 kcal/(mole unit cells)
--------------------------------------------------------------------------------

  Final asymmetric unit coordinates :

--------------------------------------------------------------------------------
   No.  Atomic        x           y           z         Radius
        Label       (Frac)      (Frac)      (Frac)       (Angs) 
--------------------------------------------------------------------------------
     1  Si    c     0.460437    0.000000    0.333333    0.000000
     2  O     c     0.413280    0.285018    0.226445    0.000000
     3  O     s     0.431600    0.280799    0.214368    0.000000
--------------------------------------------------------------------------------

  Final Cartesian lattice vectors (Angstroms) :

        4.816531    0.000000    0.000000
       -2.408266    4.171239    0.000000
        0.000000    0.000000    5.377851


  Final cell parameters and derivatives :

--------------------------------------------------------------------------------
       a            4.816531 Angstrom     dE/de1(xx)    -0.001257 eV/strain
       b            4.816531 Angstrom     dE/de2(yy)     0.000000 eV/strain
       c            5.377851 Angstrom     dE/de3(zz)    -0.000584 eV/strain
       alpha       90.000000 Degrees      dE/de4(yz)     0.000000 eV/strain
       beta        90.000000 Degrees      dE/de5(xz)     0.000000 eV/strain
       gamma      120.000000 Degrees      dE/de6(xy)     0.000000 eV/strain
--------------------------------------------------------------------------------

  Primitive cell volume =           108.045878 Angs**3

  Density of cell =      2.770584 g/cm**3

  Non-primitive cell volume =           108.045878 Angs**3


  Final internal derivatives :

--------------------------------------------------------------------------------
   No.  Atomic          x             y             z           Radius
        Label          (eV)          (eV)          (eV)        (eV/Angs)
--------------------------------------------------------------------------------
      1 Si    c      -0.001618      0.000000      0.000000      0.000000
      2 O     c       0.003727     -0.002787      0.002186      0.000000
      3 O     s      -0.003487      0.000301     -0.003017      0.000000
--------------------------------------------------------------------------------


  Born effective charge tensors : 

-------------------------------------------------------------------------------
  Atom             x           y             z
-------------------------------------------------------------------------------
   1 Si    x       3.2176      0.0000      0.0000
           y       0.0000      3.7122      0.3254
           z       0.0000     -0.1915      3.5785
-------------------------------------------------------------------------------
   2 O     x      -1.4652      0.3667     -0.2391
           y       0.3580     -1.9997      0.5113
           z      -0.1480      0.5686     -1.7893
-------------------------------------------------------------------------------




  Elastic Constant Matrix: (Units=GPa)

-------------------------------------------------------------------------------
  Indices      1         2         3         4         5         6    
-------------------------------------------------------------------------------
       1     71.1827   24.5570   30.1568   -6.4308    0.0002    0.0000
       2     24.5570   71.1827   30.1568    6.4308   -0.0002    0.0000
       3     30.1568   30.1568   92.8536    0.0000    0.0000    0.0000
       4     -6.4308    6.4308    0.0000   32.2830    0.0000   -0.0002
       5      0.0002   -0.0002    0.0000    0.0000   32.2830   -6.4308
       6      0.0000    0.0000    0.0000   -0.0002   -6.4308   23.3129
-------------------------------------------------------------------------------


  Elastic Compliance Matrix: (Units=1/GPa)

-------------------------------------------------------------------------------
  Indices      1         2         3         4         5         6    
-------------------------------------------------------------------------------
       1    0.017913 -0.004781 -0.004265  0.004521  0.000000  0.000000
       2   -0.004781  0.017913 -0.004265 -0.004521  0.000000  0.000000
       3   -0.004265 -0.004265  0.013540  0.000000  0.000000  0.000000
       4    0.004521 -0.004521  0.000000  0.032777  0.000000  0.000000
       5    0.000000  0.000000  0.000000  0.000000  0.032777  0.009041
       6    0.000000  0.000000  0.000000  0.000000  0.009041  0.045389
-------------------------------------------------------------------------------

 Mechanical properties :

-------------------------------------------------------------------------------
  Convention :                    Reuss         Voigt         Hill
-------------------------------------------------------------------------------
  Bulk  Modulus (GPa)     =      43.96796      44.99560      44.48178
  Shear Modulus (GPa)     =      25.70526      27.59901      26.65213
-------------------------------------------------------------------------------
  Velocity S-wave (km/s)  =       9.63220       9.98070       9.80800
  Velocity P-wave (km/s)  =      16.80480      17.18208      16.99449
-------------------------------------------------------------------------------
  Compressibility (1/GPa) =    0.02274383
-------------------------------------------------------------------------------
  Stress axis :                     x             y             z
-------------------------------------------------------------------------------
  Youngs Moduli (GPa)     =      55.82509      55.82509      73.85556
-------------------------------------------------------------------------------
  Poissons Ratio (x)      =                     0.26692       0.31499
  Poissons Ratio (y)      =       0.26692                     0.31499
  Poissons Ratio (z)      =       0.23809       0.23809
-------------------------------------------------------------------------------


  Piezoelectric Strain Matrix: (Units=C/m**2)

-------------------------------------------------------------------------------
  Indices      1         2         3         4         5         6    
-------------------------------------------------------------------------------
       x     4.22548  -4.22548   0.00000  -3.03256   0.00010   0.00001
       y     0.00001  -0.00001   0.00000   0.00010   3.03256  -4.22548
       z    -0.00006  -0.00006   0.00015   0.00000   0.00000   0.00000
-------------------------------------------------------------------------------


  Piezoelectric Stress Matrix: (Units=10**-11 C/N)

-------------------------------------------------------------------------------
  Indices      1         2         3         4         5         6    
-------------------------------------------------------------------------------
       x     8.21853  -8.21853   0.00000  -6.11942   0.00022   0.00004
       y     0.00002  -0.00002   0.00000   0.00022   6.11942 -16.43706
       z    -0.00015  -0.00015   0.00026   0.00000   0.00000   0.00000
-------------------------------------------------------------------------------


  Static dielectric constant tensor : 

-------------------------------------------------------------------------------
              x         y         z
-------------------------------------------------------------------------------
       x     5.83799   0.00000   0.00000
       y     0.00000   5.83799   0.00000
       z     0.00000   0.00000   6.13507
--------------------------------------------------------------------------------

  High frequency dielectric constant tensor : 

-------------------------------------------------------------------------------
              x         y         z
-------------------------------------------------------------------------------
       x     2.14384   0.00000   0.00000
       y     0.00000   2.14384   0.00000
       z     0.00000   0.00000   2.17039
-------------------------------------------------------------------------------

  Static refractive indices : 

-------------------------------------------------------------------------------
    1 =    2.41619      2 =    2.41619      3 =    2.47691
-------------------------------------------------------------------------------

  High frequency refractive indices : 

-------------------------------------------------------------------------------
    1 =    1.46419      2 =    1.46419      3 =    1.47322
-------------------------------------------------------------------------------


  Phonon Calculation : 

  K direction for n-a correction at gamma =  1.00000  1.00000  1.00000

  Number of k points for this configuration =    1

--------------------------------------------------------------------------------
  K point   1 =   0.000000  0.000000  0.000000  Weight =    1.000
--------------------------------------------------------------------------------

 Frequencies (cm-1) and Eigenvectors : 

 Frequency       0.0000    0.0000    0.0000  133.9963  134.1490  227.2719
 IR Intensity    0.0000    0.0000    0.0000    0.0030    0.0030    0.0000
    in X         0.0000    0.0000    0.0000    0.0008    0.0023    0.0000
    in Y         0.0000    0.0000    0.0000    0.0023    0.0008    0.0000
    in Z         0.0000    0.0000    0.0000    0.0000    0.0000    0.0000
 Raman Intsty    0.0000    0.0000    0.0000    0.0000    0.0000    0.3276

     1 x       0.390326 -0.056775 -0.015611 -0.039949  0.069193 -0.305899
     1 y       0.054908  0.388754 -0.040954  0.091620  0.052898  0.000000
     1 z      -0.021265 -0.038324 -0.392302 -0.013870 -0.008008  0.000000
     2 x       0.390326 -0.056775 -0.015611  0.099320 -0.011213  0.152950
     2 y       0.054908  0.388754 -0.040954  0.011214 -0.086372 -0.264916
     2 z      -0.021265 -0.038324 -0.392302  0.013870 -0.008007  0.000000
     3 x       0.390326 -0.056775 -0.015611 -0.039948 -0.091621  0.152949
     3 y       0.054908  0.388754 -0.040954 -0.069194  0.052897  0.264916
     3 z      -0.021265 -0.038324 -0.392302  0.000000  0.016016  0.000000
     4 x       0.294586 -0.042849 -0.011782 -0.120330  0.243402 -0.030861
     4 y       0.041440  0.293399 -0.030909  0.086109  0.358453  0.294237
     4 z      -0.016049 -0.028924 -0.296077  0.125378  0.314751  0.179865
     5 x       0.294586 -0.042849 -0.011782  0.381440  0.203588 -0.239386
     5 y       0.041440  0.293399 -0.030909  0.046295 -0.143317 -0.173845
     5 z      -0.016049 -0.028924 -0.296077 -0.335271 -0.048796  0.179865
     6 x       0.294586 -0.042849 -0.011782  0.096075 -0.211051  0.270247
     6 y       0.041440  0.293399 -0.030909 -0.368344  0.142048 -0.120392
     6 z      -0.016049 -0.028924 -0.296077  0.209894 -0.265956  0.179865
     7 x       0.294586 -0.042849 -0.011782 -0.150630  0.225910 -0.030862
     7 y       0.041440  0.293399 -0.030909  0.353487 -0.104649 -0.294238
     7 z      -0.016049 -0.028924 -0.296077  0.335275 -0.048791 -0.179865
     8 x       0.294586 -0.042849 -0.011782 -0.367031 -0.228549 -0.239387
     8 y       0.041440  0.293399 -0.030909 -0.100971  0.111751  0.173846
     8 z      -0.016049 -0.028924 -0.296077 -0.209891 -0.265961 -0.179865
     9 x       0.294586 -0.042849 -0.011782  0.134742 -0.188728  0.270249
     9 y       0.041440  0.293399 -0.030909 -0.061150 -0.390021  0.120392
     9 z      -0.016049 -0.028924 -0.296077 -0.125383  0.314752 -0.179865


 Frequency     240.5649  245.6840  276.3997  295.7123  357.0046  367.2738
 IR Intensity    0.1280    0.1280    0.0000    0.7556    0.4229    0.4229
    in X         0.0320    0.0960    0.0000    0.0000    0.1057    0.3172
    in Y         0.0960    0.0320    0.0000    0.0000    0.3172    0.1057
    in Z         0.0000    0.0000    0.0000    0.7556    0.0000    0.0000
 Raman Intsty    0.0000    0.0000    0.0024    0.0000    0.0000    0.0000

     1 x       0.002892 -0.005009 -0.382605 -0.000015  0.035495  0.061481
     1 y      -0.150764 -0.087044  0.000002 -0.060665 -0.326421  0.188444
     1 z       0.169745  0.098003 -0.000009  0.204456 -0.205625  0.118709
     2 x      -0.132012  0.072878  0.191301  0.052545 -0.300426 -0.132478
     2 y      -0.072878  0.047859 -0.331346  0.030319 -0.132463 -0.147477
     2 z      -0.169746  0.098002 -0.000009  0.204456  0.205618  0.118722
     3 x       0.002892  0.150764  0.191304 -0.052530  0.035507 -0.326414
     3 y       0.005009 -0.087044  0.331344  0.030346  0.061474  0.188457
     3 z       0.000001 -0.196005 -0.000009  0.204456  0.000007 -0.237431
     4 x       0.364415  0.275910 -0.189205 -0.195718  0.300520  0.103448
     4 y       0.194024  0.000421 -0.080387 -0.295429 -0.066992 -0.041693
     4 z       0.165181 -0.158433 -0.226286 -0.135461 -0.179482 -0.303545
     5 x       0.294907 -0.234154  0.164220  0.353708  0.032597  0.087693
     5 y      -0.316041  0.069929 -0.123663 -0.021782 -0.051237 -0.309616
     5 z       0.054616  0.222267 -0.226286 -0.135461 -0.173137  0.307209
     6 x      -0.112068  0.081074  0.024985 -0.157990  0.180202 -0.136457
     6 y      -0.000813  0.476904  0.204050  0.317211  0.172913 -0.162010
     6 z      -0.219797 -0.063834 -0.226286 -0.135461  0.352619 -0.003664
     7 x      -0.421152 -0.177638 -0.189220  0.195701 -0.060692  0.311980
     7 y       0.097375  0.167818  0.080411 -0.295421  0.002610  0.078863
     7 z      -0.054618  0.222265  0.226298 -0.135443  0.173122  0.307222
     8 x       0.055330 -0.372472  0.164248 -0.353693  0.059641  0.072084
     8 y      -0.097459 -0.308664  0.123664 -0.021771  0.242506  0.199196
     8 z       0.219796 -0.063832  0.226298 -0.135443 -0.352623 -0.003683
     9 x      -0.014180  0.137591  0.024972  0.157992 -0.208282  0.087821
     9 y       0.412603 -0.239154 -0.204075  0.317193  0.226769 -0.068727
     9 z      -0.165178 -0.158433  0.226298 -0.135443  0.179501 -0.303539


 Frequency     398.5940  429.8848  450.0212  498.2904  703.4364  706.3560
 IR Intensity    0.9857    0.9857    0.0000    0.8277    0.0485    0.0485
    in X         0.7393    0.2464    0.0000    0.0000    0.0364    0.0121
    in Y         0.2464    0.7393    0.0000    0.0000    0.0121    0.0364
    in Z         0.0000    0.0000    0.0000    0.8277    0.0000    0.0000
 Raman Intsty    0.0000    0.0000    0.8781    0.0000    0.0000    0.0000

     1 x      -0.237459  0.137096 -0.155768  0.000001 -0.103107  0.059531
     1 y       0.096411  0.166996  0.000001  0.142167 -0.111338 -0.192837
     1 z       0.067637  0.117157 -0.000001 -0.213979  0.299168  0.518166
     2 x      -0.202229  0.076071  0.077883 -0.123120  0.044863 -0.196768
     2 y       0.157436  0.202226 -0.134900 -0.071082  0.144961 -0.044867
     2 z       0.067643 -0.117154 -0.000001 -0.213979  0.299161 -0.518170
     3 x      -0.166995  0.137094  0.077885  0.123119  0.192839  0.059527
     3 y       0.096413  0.237460  0.134899 -0.071084 -0.111334  0.103109
     3 z      -0.135279 -0.000004 -0.000001 -0.213979 -0.598329  0.000004
     4 x       0.241234  0.057200  0.344048 -0.330604 -0.194943 -0.007340
     4 y       0.135800 -0.227459  0.064477  0.065373  0.152473 -0.199475
     4 z      -0.110973 -0.352198 -0.178901  0.141764  0.040716  0.140371
     5 x       0.264937  0.122115 -0.227863  0.108687  0.170071 -0.058268
     5 y       0.070885 -0.203755  0.265716 -0.318998  0.203402  0.165540
     5 z      -0.249526  0.272204 -0.178901  0.141764  0.101206 -0.105447
     6 x       0.196867  0.110185 -0.116185  0.221917  0.031670  0.283308
     6 y       0.082815 -0.271825 -0.330193  0.253625 -0.138175  0.027138
     6 z       0.360499  0.079993 -0.178901  0.141764 -0.141923 -0.034924
     7 x       0.071083 -0.237512  0.344055  0.330599 -0.091111  0.172497
     7 y      -0.264884  0.003873 -0.064476  0.065374 -0.248985  0.032314
     7 z      -0.249519 -0.272204  0.178902  0.141759  0.101209  0.105441
     8 x       0.026719 -0.290498 -0.227866 -0.108684  0.135494 -0.118155
     8 y      -0.211898 -0.040492 -0.265723 -0.318994  0.041667  0.258918
     8 z       0.360496 -0.079988  0.178902  0.141759 -0.141919  0.034929
     9 x       0.003014 -0.225584 -0.116190 -0.221915 -0.229520 -0.169074
     9 y      -0.276812 -0.064197  0.330199  0.253620  0.092586 -0.106096
     9 z      -0.110976  0.352192  0.178902  0.141759  0.040710 -0.140370


 Frequency     789.6722  793.4955  810.1156  872.9590  881.0535  904.1825
 IR Intensity    0.4674    0.4674    0.7697    0.0000    1.0908    1.0908
    in X         0.1168    0.3505    0.0000    0.0000    0.8181    0.2727
    in Y         0.3505    0.1168    0.0000    0.0000    0.2727    0.8181
    in Z         0.0000    0.0000    0.7697    0.0000    0.0000    0.0000
 Raman Intsty    0.0000    0.0000    0.0000    0.0006    0.0000    0.0000

     1 x      -0.313389 -0.542830  0.000006  0.262886  0.112869  0.065152
     1 y       0.264321 -0.152607  0.488375 -0.000015 -0.180491  0.312600
     1 z       0.159891 -0.092311  0.206345 -0.000004 -0.064791  0.112219
     2 x       0.385615 -0.139249 -0.422948 -0.131430  0.212724  0.238142
     2 y      -0.139260  0.546397 -0.244182  0.227673 -0.007501  0.212745
     2 z      -0.159889 -0.092314  0.206345 -0.000004 -0.064789 -0.112220
     3 x      -0.313398  0.264316  0.422942 -0.131456  0.312610  0.065170
     3 y      -0.542825 -0.152617 -0.244193 -0.227659 -0.180473  0.112859
     3 z      -0.000002  0.184625  0.206345 -0.000004  0.129580  0.000001
     4 x       0.190661  0.112745 -0.003355 -0.107431 -0.098565  0.113056
     4 y      -0.017383 -0.070278  0.086166  0.263572  0.324060 -0.155448
     4 z      -0.137091 -0.013259 -0.136709 -0.226054 -0.278848  0.147879
     5 x       0.044027  0.067277 -0.072944 -0.174544  0.048050 -0.239412
     5 y       0.028086 -0.216912 -0.045989 -0.224824 -0.028408 -0.302063
     5 z       0.057062  0.125354 -0.136709 -0.226054  0.011357 -0.315429
     6 x       0.156721 -0.036978  0.076299  0.281975 -0.330504 -0.190150
     6 y       0.132341 -0.104218 -0.040177 -0.038747  0.020854  0.076491
     6 z       0.080028 -0.112094 -0.136709 -0.226054  0.267491  0.167550
     7 x       0.002304  0.221496  0.003349 -0.107428  0.048630 -0.141877
     7 y       0.052166  0.050208  0.086152 -0.263571 -0.027404 -0.358364
     7 z      -0.057065  0.125339 -0.136698  0.226058  0.011355  0.315432
     8 x       0.036242  0.071760  0.072936 -0.174545 -0.183314  0.161318
     8 y       0.201902  0.084146 -0.045976  0.224820  0.275791 -0.126419
     8 z      -0.080014 -0.112090 -0.136698  0.226058  0.267494 -0.167549
     9 x      -0.110402  0.117237 -0.076285  0.281973 -0.329917 -0.191150
     9 y       0.156425 -0.062498 -0.040176  0.038750 -0.076677  0.020183
     9 z       0.137080 -0.013249 -0.136698  0.226058 -0.278849 -0.147882


 Frequency    1004.4515 1015.0368 1111.1266
 IR Intensity    0.8558    0.0625    0.0625
    in X         0.0000    0.0156    0.0469
    in Y         0.0000    0.0469    0.0156
    in Z         0.8558    0.0000    0.0000
 Raman Intsty    0.0000    0.0000    0.0000
     1 x       0.000002 -0.006510  0.011278
     1 y       0.266330  0.113142  0.065324
     1 z      -0.217586 -0.329139 -0.190028
     2 x      -0.230650  0.101241 -0.050932
     2 y      -0.133163  0.050932 -0.042427
     2 z      -0.217586  0.329138 -0.190029
     3 x       0.230647 -0.006510 -0.113142
     3 y      -0.133167 -0.011278  0.065324
     3 z      -0.217586  0.000001  0.380057
     4 x       0.138042  0.145233 -0.045542
     4 y      -0.260178 -0.318158  0.171097
     4 z       0.144148  0.271487 -0.158493
     5 x       0.156299  0.007144  0.238433
     5 y       0.249637 -0.034183  0.309185
     5 z       0.144148  0.001516  0.314361
     6 x      -0.294341  0.322118  0.216033
     6 y       0.010541 -0.056583 -0.005788
     6 z       0.144148 -0.273003 -0.155868
     7 x      -0.138043 -0.033174 -0.148546
     7 y      -0.260182 -0.010900 -0.361085
     7 z       0.144153 -0.001519  0.314365
     8 x      -0.156303 -0.210065  0.113028
     8 y       0.249640  0.250674 -0.184194
     8 z       0.144153  0.273008 -0.155867
     9 x       0.294346 -0.348149 -0.170951
     9 y       0.010542 -0.033305 -0.046109
     9 z       0.144153 -0.271489 -0.158498


--------------------------------------------------------------------------------
  Phonon properties (per mole of unit cells): Temperature =      0.000 K
--------------------------------------------------------------------------------
  Zero point energy            =        0.845995 eV
--------------------------------------------------------------------------------

  Phonon density of states : 

--------------------------------------------------------------------------------
 Frequency (cm-1) Density of States                                             
--------------------------------------------------------------------------------
    0.00000 |************************************************************  0.077
   18.00000 |                                                              0.000
   36.00000 |                                                              0.000
   54.00000 |                                                              0.000
   72.00000 |                                                              0.000
   90.00000 |                                                              0.000
  108.00000 |                                                              0.000
  126.00000 |************************************************************  0.077
  144.00000 |                                                              0.000
  162.00000 |                                                              0.000
  180.00000 |                                                              0.000
  198.00000 |                                                              0.000
  216.00000 |******************************                                0.038
  234.00000 |************************************************************  0.077
  252.00000 |                                                              0.000
  270.00000 |******************************                                0.038
  288.00000 |******************************                                0.038
  306.00000 |                                                              0.000
  324.00000 |                                                              0.000
  342.00000 |******************************                                0.038
  360.00000 |******************************                                0.038
  378.00000 |                                                              0.000
  396.00000 |******************************                                0.038
  414.00000 |******************************                                0.038
  432.00000 |                                                              0.000
  450.00000 |******************************                                0.038
  468.00000 |                                                              0.000
  486.00000 |******************************                                0.038
  504.00000 |                                                              0.000
  522.00000 |                                                              0.000
  540.00000 |                                                              0.000
  558.00000 |                                                              0.000
  576.00000 |                                                              0.000
  594.00000 |                                                              0.000
  612.00000 |                                                              0.000
  630.00000 |                                                              0.000
  648.00000 |                                                              0.000
  666.00000 |                                                              0.000
  684.00000 |                                                              0.000
  702.00000 |************************************************************  0.077
  720.00000 |                                                              0.000
  738.00000 |                                                              0.000
  756.00000 |                                                              0.000
  774.00000 |******************************                                0.038
  792.00000 |******************************                                0.038
  810.00000 |******************************                                0.038
  828.00000 |                                                              0.000
  846.00000 |                                                              0.000
  864.00000 |************************************************************  0.077
  882.00000 |                                                              0.000
  900.00000 |******************************                                0.038
  918.00000 |                                                              0.000
  936.00000 |                                                              0.000
  954.00000 |                                                              0.000
  972.00000 |                                                              0.000
  990.00000 |******************************                                0.038
 1008.00000 |******************************                                0.038
 1026.00000 |                                                              0.000
 1044.00000 |                                                              0.000
 1062.00000 |                                                              0.000
 1080.00000 |                                                              0.000
 1098.00000 |******************************                                0.038
 1116.00000 |                                                              0.000
 1134.00000 |                                                              0.000
--------------------------------------------------------------------------------



  Time to end of optimisation =       0.0400 seconds


  Peak dynamic memory used =       0.52 MB 


  Timing analysis for GULP :

--------------------------------------------------------------------------------
  Task / Subroutine                                          Time (Seconds)
--------------------------------------------------------------------------------
  Calculation of real space energy and derivatives                0.0100
  Calculation of real space energy using symmetry                 0.0300
--------------------------------------------------------------------------------
  Total CPU time                                                  0.0400
--------------------------------------------------------------------------------


  Dump file written as example_quartz.grs            


  Job Finished at 20:51.44  2nd December   2010                               

