
 *******************************************************************************
 *                                                                             *
 *  -------------------------------------                                      *
 *   Amsterdam Density Functional  (ADF)         2009.01   September 29th, 2009*
 *  -------------------------------------                                      *
 *                                               Build 200909271755            *
 *                                                                             *
 *                                                                             *
 *                            =====================                            *
 *                            |                   |                            *
 *                            |     D I R A C     |                            *
 *                            |                   |                            *
 *                            =====================                            *
 *                                                                             *
 *                                                                             *
 *   Online information and documentation:  http://www.scm.com                 *
 *   E-mail:  support@scm.com   info@scm.com                                   *
 *                                                                             *
 *   Scientific publications using ADF results must be properly referenced     *
 *   See the User Manuals (or the web site) for recommended citations          *
 *   The terms and conditions of the End User License Agreement apply to       *
 *   the use of ADF, http://www.scm.com/Sales/LicAgreement.html                *
 *                                                                             *
 ************************  pentium_linux_ifc / hpmpi  **************************
 
 DIRAC 2009.01  RunTime: Jan04-2010 10:38:40

 Temporary files are created in /home/kit/Documents/calcs_local/oh2/kid_0.cUg4QI

1
 HYDROGEN ATOM RELATIVISTIC, Point Nuc, A and c from libtc   
 N J RN H ZN XION ANUC CLIGHT
 5000    1100.00000000197.36710137  1.00000000  0.00000000    1.007825  0.1370360E+03
  PH   PHI     EPS        DEL        DELRVR
  0.30  0.30     2500.00  0.00001000  0.00001000
 IDIRC  NC1  NDEBU NPRIN  IPUN IRCOR IWCOR
   1   300     0     0     0     0     0
   XALPHA      XLATTER      RNUC
  0.70000000  0.00000000  0.00000000 Point Charge
   XN   XL   XJ      XE          XZ      XDELL
  1.0  0.0  0.5      -1.000       1.000     0.00000
 ICORP=  0  NPCL=  0  DEMP=0.00  PEPS=0.000000
 R(1)=  0.1000000E-08 D=  0.1005080E+01 RNUC=  0.0000000E+00
 converged at cycle   32  DENSITY AVERAGING    0.2400
  MAXIMUM ERROR IN R.V(R) IS   0.79874357E-05
 Q,EY,EV,EZ,ESUM,ETOT,RHO  0.100000E+01 -0.266614E+00 -0.619969E+00 -0.910779E+00 -0.203940E+00 -0.415998E+00  0.337036E-17


 DIRAC CALCULATION
1                    HYDROGEN ATOM RELATIVISTIC, Point Nuc, A and c from libtc


 EXCHANGE COEFFICIENT=  0.7000000           TAIL CORRECTION=  0.           NUCLEAR RADIUS=  0.000E+00
0                       ORBITAL    N    L    J     ELECTRONS     EIGENVALUE                DELTA OF EIGENV.

                          1S1/2  1.0  0.0  0.5     1.000       -0.2039397E+00                 0.2720093E-06


                                        NUCLEAR CHARGE=    1.000000
                            INTEGRAL OF CHARGE DENSITY=    1.000000
                           SUM OF THE ORBITAL ENERGIES=     -0.2039
                                          TOTAL ENERGY=     -0.4160
                                        KINETIC ENERGY=      0.4160
                             NUCLEAR ATTRACTION ENERGY=     -0.9108
                             ELECTRON REPULSION ENERGY=      0.2787
                                       EXCHANGE ENERGY=     -0.2000

 *******************************************************************************

                             D I R A C   E X I T
 NORMAL TERMINATION



 =================
 Timing Statistics
 =================
  
 Total Used :                     CPU=        0.15      System=        0.05     Elapsed=        0.20

 Calls  Section                     ( Mean, Percentage )
 ---------------------------------------------------------------------------------------------------
     2  ><      ................      0.00    0.00             0.00    0.00             0.00    0.01
     1  EXIT PROCEDURE .........      0.15  100.00             0.05  100.00             0.20   99.99


 Currently Open Files (EXIT00)
 ====================

 Unit    Access Format  Status   Type       Ident (file)
 -------------------------------------------------------
   3      SEQ    FORM   TRANSP  NORMAL      LOGFILE
                                          ( logfile )


 Buffered I/O statistics
 =======================
 Memory available:                     67108864
 Number of records fitting in memory:     16225
 Input : 100.0% of                            0  *4k bytes
 Output: 100.0% of                            0  *4k bytes
 Records from serial files evicted:           0
                    others evicted:           0
 Hash table lookups:          0 with          0 conflicts (100.00%)
NORMAL TERMINATION
(INPUT FILE)
Create H   file=/home/kit/adf/adf2009.01/atomicdata/ZORA/TZ2P/H
XC
  GGA OLYP
End
relativistic ZORA
Corepotentials t12.rel
End Input

 *******************************************************************************
 *                                                                             *
 *  -------------------------------------                                      *
 *   Amsterdam Density Functional  (ADF)         2009.01   September 29th, 2009*
 *  -------------------------------------                                      *
 *                                               Build 200909271755            *
 *                                                                             *
 *                                                                             *
 *                              =================                              *
 *                              |               |                              *
 *                              |     A D F     |                              *
 *                              |               |                              *
 *                              =================                              *
 *                                                                             *
 *                                                                             *
 *   Online information and documentation:  http://www.scm.com                 *
 *   E-mail:  support@scm.com   info@scm.com                                   *
 *                                                                             *
 *   Scientific publications using ADF results must be properly referenced     *
 *   See the User Manuals (or the web site) for recommended citations          *
 *   The terms and conditions of the End User License Agreement apply to       *
 *   the use of ADF, http://www.scm.com/Sales/LicAgreement.html                *
 *                                                                             *
 ************************  pentium_linux_ifc / hpmpi  **************************
 
 ADF 2009.01  RunTime: Jan04-2010 10:38:40

 Temporary files are created in /home/kit/Documents/calcs_local/oh2/kid_0.EJwXh5

 Hydrogen (TZ2P)



 ===========================
 A T T A C H E D   F I L E S
 ===========================
  
 CREATE - Data File:    /home/kit/adf/adf2009.01/atomicdata/ZORA/TZ2P/H
                        Hydrogen (TZ2P)
 Core Potentials:
         file : t12.rel



 ===============================
 M O D E L   P A R A M E T E R S
 ===============================
  
 DENSITY FUNCTIONAL POTENTIAL (scf)
    LDA:                               Exchange only                           == Not Default ==
    Gradient Corrections:              OPTX LYP                                == Not Default ==

 SPIN  (restricted / unrestr.)
    Molecule:                          Restricted                               

 OTHER ASPECTS
    Relativistic Corrections:          scalar (ZORA,SAPA)                       *** SPECIAL ***

    Nuclear Charge Density Model:      Point Charge Nuclei                                                                                                                                                                                     
    Core Treatment:                    Frozen Orbital(s)                        

    Electric Field:                    ---                                      

    Hyperfine or Zeeman Interaction:   ---                                      



 =====================================
 S Y M M E T R Y ,   E L E C T R O N S
 =====================================
  
 Symmetry: ATOM

 Irreducible Representations, including subspecies
 -------------------------------------------------
 S
 P:x  P:y  P:z
 D:z2  D:x2-y2  D:xy  D:xz  D:yz
 F:z3  F:z  F:xyz  F:z2x  F:z2y  F:x  F:y


 Configuration of Valence Electrons
 ==================================

          Occupation Numbers
          -------------------------------------------------
 S        1
 P        0
 D        0
 F        0
          -------------------------------------------------

 Total:   1

 Net Charge: 0 (Nuclei minus Electrons)

 Preset values for MO occupations will be applied through SCF cycle no. 1000000
 Thereafter, the program will assign electrons to MOs that are spatially
 similar to the occupied MOs in a "reference" cycle ("KeepOrbitals").
 The reference cycle is always the PREVIOUS cycle: it will evolve with
 the SCF procedure.



 ================================
 (Slater-type)  F U N C T I O N S  ***  (Basis and Fit)  ***
 ================================
  

 Atom Type    1  (H)
 ==============

 Valence Basis Sets:   5
 -----------------------
   1 S    0.690000
   1 S    0.920000
   1 S    1.580000
   2 P    1.250000
   3 D    2.500000

 Charge Fitting Sets (for the computation of the Coulomb Potential):  11
 -----------------------------------------------------------------------
   1 S    3.160000
   1 S    2.090000
   1 S    1.380000
   2 S    1.500000
   2 P    4.000000
   2 P    2.650000
   2 P    1.750000
   3 D    4.000000
   3 D    2.500000
   4 F    3.000000
   5 G    4.000000


 BAS: List of all Elementary Cartesian Basis Functions
 =====================================================

 The numbering in the list below (to the right of the function characteristics) is referred
 to in print-outs of MO eigenvectors and Mulliken populations in the BAS representation
 (as contrasted to the SFO representation).

 Notes:
 1. The functions are characterized by a polynomial prefactor (powers of x,y,z and r) and
    an exponential decay factor alpha.
 2. Since the basis sets are specific for an atom TYPE, the individual functions occur on
    all atoms of that type.
 3. The word 'Core' in the left margin signals that it is a Core Function (CF) : not a
    degree of freedom in the valence set, but only used to ensure orthogonalization of
    the other valence basis functions on the frozen Core Orbitals.


 (power of) X  Y  Z  R     Alpha  on Atom
            ==========     =====     ==========

 H                                    1
                                  ---------------------------------------------------------------------------
            0  0  0  0     0.690      1
            0  0  0  0     0.920      2
            0  0  0  0     1.580      3
            1  0  0  0     1.250      4
            0  1  0  0     1.250      5
            0  0  1  0     1.250      6
            2  0  0  0     2.500      7
            1  1  0  0     2.500      8
            1  0  1  0     2.500      9
            0  2  0  0     2.500     10
            0  1  1  0     2.500     11
            0  0  2  0     2.500     12

 Total number of charge fitting functions (nprimf)        50
 Total number of Cartesian basis functions (naos)         12
 Total number of Cartesian core functions  (ncos)          0



 BAS: List of all Elementary Cartesian Basis Functions
 =====================================================

 The numbering in the list below (to the right of the function characteristics) is referred
 to in print-outs of MO eigenvectors and Mulliken populations in the BAS representation
 (as contrasted to the SFO representation).

 Notes:
 1. The functions are characterized by a polynomial prefactor (powers of x,y,z and r) and
    an exponential decay factor alpha.
 2. Since the basis sets are specific for an atom TYPE, the individual functions occur on
    all atoms of that type.
 3. The word 'Core' in the left margin signals that it is a Core Function (CF) : not a
    degree of freedom in the valence set, but only used to ensure orthogonalization of
    the other valence basis functions on the frozen Core Orbitals.


 (power of) X  Y  Z  R     Alpha  on Atom
            ==========     =====     ==========

 H                                    1
                                  ---------------------------------------------------------------------------
            0  0  0  0     0.690      1
            0  0  0  0     0.920      2
            0  0  0  0     1.580      3
            1  0  0  0     1.250      4
            0  1  0  0     1.250      5
            0  0  1  0     1.250      6
            2  0  0  0     2.500      7
            1  1  0  0     2.500      8
            1  0  1  0     2.500      9
            0  2  0  0     2.500     10
            0  1  1  0     2.500     11
            0  0  2  0     2.500     12
1
 ***************************************************************************************************



                                              ***********************
                                              *  T E C H N I C A L  *
                                              ***********************
  



 =============================================================
 P A R A L L E L I Z A T I O N  and  V E C T O R I Z A T I O N
 =============================================================
  
 Nr of parallel processes:                                1
 Maximum vector length in NumInt loops:                 128



 ===============
 I O  vs.  C P U  ***  (store numerical data on disk or recalculate)  ***
 ===============
  
 Basis functions:   recalculate when needed
 Fit functions:     recalculate when needed

 IO buffersize (Mb):                                     64.000000



 =====================
 S C F   U P D A T E S
 =====================
  
 Max. nr. of cycles:                               100
 Convergence criterion:                              0.0000000100
   secondary criterion:                              0.0000000100

 Mix parameter (when DIIS does not apply):           0.2000000000
 Special mix parameter for the first cycle:          1.0000000000


 DIIS (Direct Inversion in Iteration Space)
    Replace damping when SCF Error is below:         0.5000000000
    Apply anyway after SCF cycle:
                                                     5
    (Max.) nr. of expansion vectors:                10

    Upperbound on expansion coefficients:            5.0000000000
    (when exceeded, IterationSpace is re-built)
    2nd Upperbound on coefficients:                 25.0000000000
    (when exceeded, simple damping will be used)
 Automatic ElectronSmearing (in case of problematic SCF convergence) disabled



 =================
 P R E C I S I O N  ***  (General: NumInt, NeglectFunctionTails, ...)  ***
 =================
  

 NumInt:           Target precision:                10.0000000000
 -------           Initial precision:               10.0000000000
                   Min. precision (optimization):   10.0000000000

 Neglect Functions:          Basis functions:        0.1000000000E-11
 ------------------          Fit functions:          0.1000000000E-11



 ===========================
 L I N E A R   S C A L I N G
 ===========================
  

 Cut-off radii density fit:                        0.1000000000E-13
 Overlap cut-off criterion AO matrix elements:     0.1000000000E-11
 Cut-offs for Coulomb potential and fitted density:0.1000000000E-13
 Cut-off criterion for Coulomb multipole terms:    0.1000000000E-13
 Progressive Convergence parameter:                 0.000000000    
1
 ***************************************************************************************************



                                            ***************************
                                            *  C O M P U T A T I O N  *
                                            ***************************
  

 Number of elements of the density matrix on this node (used, total):        78        78



 ====================================================
 Numerical Integration : Voronoi Polyhedra (Te Velde)  ***  (parameters, tests)  ***
 ====================================================
  
 General Accuracy Parameter :                         10.00

 Symmetry used in the points section:  ATOM  


 Summary of the Symmetry Unique Points:
 --------------------------------------
    Nr. of used Symmetry Operators                     1

    Points in the Atomic Spheres                      41
    Points in the Atomic Polyhedra                     0
    Points in the Outer Region                         0
    ----------------------------------------------------
    Total                                             41

    Sum of Weights                                 33854.777883

 Total nr. of points:         41
 Nr. of blocks:                1
 Block length:                41
 Nr. of dummy points:          0


 Test of Precision of the Numerical Integration Grid
 ===================================================

 Integral of the Total Core Density:                   0.00000000000000



 =====
 S C F
 =====
  

 CYCLE    1
 orbitals (Q,E):
 ---------------
 S :1...3            ( 1.00    -0.2447)  ( 0.00     0.0749)  ( 0.00     1.5153)
 P :1...1            ( 0.00     0.4046)
 D :1...1            ( 0.00     2.5587)

 CYCLE    2
 d-Pmat  mean:  0.83E-02
 imax=      2: -0.73E-01
 orbitals (Q,E):
 ---------------
 S :1...2            ( 1.00    -0.2367)  ( 0.00     0.0773)
 P :1...1            ( 0.00     0.4114)
 D :1...1            ( 0.00     2.5681)

 CYCLE    3
 d-Pmat  mean:  0.16E-02
 imax=      2:  0.14E-01
 orbitals (Q,E):
 ---------------
 S :1...2            ( 1.00    -0.2384)  ( 0.00     0.0767)
 P :1...1            ( 0.00     0.4100)
 D :1...1            ( 0.00     2.5663)

 CYCLE    4
 d-Pmat  mean:  0.22E-04
 imax=      2:  0.17E-03
 orbitals (Q,E):
 ---------------
 S :1...2            ( 1.00    -0.2384)  ( 0.00     0.0767)
 P :1...1            ( 0.00     0.4100)
 D :1...1            ( 0.00     2.5663)

 CYCLE    5
 d-Pmat  mean:  0.97E-07
 imax=      2:  0.86E-06
 orbitals (Q,E):
 ---------------
 S :1...2            ( 1.00    -0.2384)  ( 0.00     0.0767)
 P :1...1            ( 0.00     0.4100)
 D :1...1            ( 0.00     2.5663)

 CYCLE    6
 d-Pmat  mean:  0.14E-10
 imax=      2:  0.13E-09
 orbitals (Q,E):
 ---------------
 S :1...2            ( 1.00    -0.2384)  ( 0.00     0.0767)
 P :1...1            ( 0.00     0.4100)
 D :1...1            ( 0.00     2.5663)

 SCF CONVERGED

 CYCLE    7
1
 ***************************************************************************************************



                                                *******************
                                                *  R E S U L T S  *
                                                *******************
  
 *** Setting up for NEW gradients in focky
 *** Using FIT density in focky

 Scaled ZORA Orbital Energies, per Irrep and Spin:
 =================================================
                        Occup              E (au)              E (eV)       Diff (eV) with prev. cycle
                        -----      --------------------        ------       --------------------------
 S
               1        1.000     -0.23844080979135E+00        -6.488              -2.88E-10
               2        0.000      0.76691652239381E-01         2.087
               3        0.000      0.15203523046255E+01        41.371
 P
               1        0.000      0.41002727912597E+00        11.157
 D
               1        0.000      0.25662943922396E+01        69.832


 Partially Occupied:
               1 S                -0.23844080979135E+00
  
 LUMO :        2 S                 0.76691652239381E-01
  


 Orbital Energies, all Irreps
 ========================================

 Irrep        no.  (spin)   Occup              E (au)                E (eV)
 ---------------------------------------------------------------------------
 S             1             1.00       -0.23844080979135E+00        -6.4883
 S             2             0.00        0.76691652239381E-01         2.0869
 P             1             0.00        0.41002727912597E+00        11.1574
 S             3             0.00        0.15203523046255E+01        41.3709
 D             1             0.00        0.25662943922396E+01        69.8324


 Scaled ZORA Orbital Energies of the Core Orbitals:
 ==================================================

 (Note that the atoms are grouped by atomtype, see the labels, and may hence NOT be in input order)

 AtomType  Orbital  Atom                   E (au)                        E (eV)
 --------  -------  ----           --------------------        ----------------



 =======================================
 M U L L I K E N   P O P U L A T I O N S
 =======================================
  
 The survey below gives for each atom:
 a) the total charge (Z minus electrons)
 b) the net spin polarization (nr of electrons spin-A minus spin-B)
 c) for each spin the atomic electron valence density (integrated) per L-value.

 Atom              Charge    Spin density          S         P         D         F
 ----              ------    ------------       ------    ------    ------    ------
 1 H               0.0000                       1.0000    0.0000    0.0000    0.0000

 Populations of individual BAS functions
 ----------------------------------------
 1 H            0.2415  0.6275  0.1309  0.0000  0.0000  0.0000  0.0000  0.0000  0.0000  0.0000
                0.0000  0.0000

 Gross Charges per Atom (Z minus electrons)
 ==========================================
             0.0000
 Net Total:  0.00000000


 Atom-Atom Population Matrix (off-diagonal elements not doubled)
 ===============================================================

     1 :     1.0000



 =============
 Dipole Moment  ***  (Debye)  ***
 =============
  
 Vector   :         0.00000000      0.00000000      0.00000000
 Magnitude:         0.00000000

 This molecular dipole moment is calculated with analytic integration



 =========================================
 Quadrupole Moment (Buckingham convention)  ***  (a.u.)  ***
 =========================================
  
      quad-xx        quad-xy        quad-xz        quad-yy        quad-yz        quad-zz
      0.00000000     0.00000000     0.00000000     0.00000000     0.00000000     0.00000000

 This molecular quadrupole moment is calculated with analytic integration



 ===============================================================================
 Electrostatic potential at the Nuclei due to valence electrons and other nuclei
 ===============================================================================
  
         Atom                  Potential
         ----                  ---------
     1)   H                   0.95066312
 
 
 ========================
 No memory problems found
 ========================
 
 Maximum number of active allocate calls:         383
 
 *******************************************************************************

                             A D F   E X I T
 NORMAL TERMINATION



 =================
 Timing Statistics
 =================
  
 Total Used :                     CPU=        0.13      System=        0.08     Elapsed=        0.22

 Calls  Section                     ( Mean, Percentage )
 ---------------------------------------------------------------------------------------------------
     3  ><      ................      0.00    0.00             0.00    0.00             0.00    0.54
     1  INIT    ................      0.00    0.00             0.00    5.00             0.01    3.22
     1  GEOMET  ................      0.00    3.12             0.06   70.00             0.06   26.56
     1  INPUTA  ................      0.00    3.13             0.00    0.00             0.01    2.27
     1  MAINSY  ................      0.00    3.12             0.00    5.00             0.01    3.60
     1  SYMFIT  ................      0.00    0.00             0.00    0.00             0.00    0.19
     1  CORORT  ................      0.00    0.00             0.00    0.00             0.00    0.20
     1  SYMORB  ................      0.00    0.00             0.00    0.00             0.00    0.54
     1  FITINT  ................      0.01    6.25             0.00    0.00             0.01    2.96
     1  CLSMAT  ................      0.00    0.00             0.00    0.00             0.00    0.22
     1  ORTHON  ................      0.00    0.00             0.00    0.00             0.00    0.73
     1  ETALOW  ................      0.00    0.00             0.00    0.00             0.00    0.40
     1  GENPT   ................      0.01    9.38             0.00    0.00             0.01    4.45
     1  PTBAS   ................      0.00    3.12             0.00    0.00             0.00    1.48
     7  FOCKY   ................      0.01   40.62             0.00   15.00             0.01   31.52
     7  FOCKTR  ................      0.00    0.00             0.00    0.00             0.00    1.06
     7  FOCKNM  ................      0.00    0.00             0.00    0.00             0.00    0.11
     7  SDIIS   ................      0.00    0.00             0.00    0.00             0.00    1.93
     7  EMERGE  ................      0.00   21.88             0.00    0.00             0.00    8.69
     1  COREPS  ................      0.00    0.00             0.00    5.00             0.00    1.96
     1  POPAN   ................      0.00    3.13             0.00    0.00             0.00    1.46
     1  DEBYE   ................      0.00    0.00             0.00    0.00             0.00    0.28
     1  QMPOT   ................      0.00    3.12             0.00    0.00             0.01    3.12
     1  EXIT PROCEDURE .........      0.00    3.12             0.00    0.00             0.01    2.54


 Currently Open Files (EXIT00)
 ====================

 Unit    Access Format  Status   Type       Ident (file)
 -------------------------------------------------------
   3      SEQ    FORM   TRANSP  NORMAL      LOGFILE
                                          ( logfile )


 Buffered I/O statistics
 =======================
 Memory available:                     67108864
 Number of records fitting in memory:     16225
 Input :   1.4% of                         3245  *4k bytes
 Output:  11.2% of                         1744  *4k bytes
 Records from serial files evicted:           0
                    others evicted:           0
 Hash table lookups:      13609 with          0 conflicts (  0.00%)

 ***************************************************************************************************
 (LOGFILE)
 <Jan03-2010> <17:11:45>  DIRAC 2009.01  RunTime: Jan03-2010 17:11:45
 <Jan03-2010> <17:11:45>  NORMAL TERMINATION
 <Jan03-2010> <17:11:45>  END
 <Jan03-2010> <17:11:45>  ADF 2009.01  RunTime: Jan03-2010 17:11:45
 <Jan03-2010> <17:11:45>  Hydrogen (TZ2P)
 <Jan03-2010> <17:11:45>  RunType   : CREATE
 <Jan03-2010> <17:11:46>  Net Charge: 0 (Nuclei minus Electrons)
 <Jan03-2010> <17:11:46>  Symmetry  : ATOM
 <Jan03-2010> <17:11:46>  >>>> CORORT
 <Jan03-2010> <17:11:46>  >>>> FITINT
 <Jan03-2010> <17:11:46>  >>>> CLSMAT
 <Jan03-2010> <17:11:46>  >>>> ORTHON
 <Jan03-2010> <17:11:46>  >>>> GENPT
 <Jan03-2010> <17:11:46>  Acc.Num.Int.=  10.000
 <Jan03-2010> <17:11:46>  Block Length=  41
 <Jan03-2010> <17:11:46>  >>>> PTBAS
 <Jan03-2010> <17:11:46>  >>>> CYCLE
 <Jan03-2010> <17:11:46>    1
 <Jan03-2010> <17:11:46>    2  ErrMat   0.00333796  MaxEl -0.00317312
 <Jan03-2010> <17:11:46>    3  ErrMat   0.00120595  MaxEl  0.00120509
 <Jan03-2010> <17:11:46>    4  ErrMat   0.00004249  MaxEl  0.00003893
 <Jan03-2010> <17:11:46>    5  ErrMat   0.00000009  MaxEl -0.00000008
 <Jan03-2010> <17:11:46>    6  ErrMat   0.00000000  MaxEl  0.00000000
 <Jan03-2010> <17:11:46>  SCF converged
 <Jan03-2010> <17:11:46>    7  ErrMat   0.00000000  MaxEl  0.00000000
 <Jan03-2010> <17:11:46>   Solutions with partially occupied orbitals may not be
 <Jan03-2010> <17:11:46>   lowest in energy. You might consider lowering the
 <Jan03-2010> <17:11:46>   symmetry in the input and explicitly specifying integer
 <Jan03-2010> <17:11:46>   occupations. In that case always check that you obtain
 <Jan03-2010> <17:11:46>   an aufbau solution.
 <Jan03-2010> <17:11:46>  >>>> POPAN
 <Jan03-2010> <17:11:46>  >>>> DEBYE
 <Jan03-2010> <17:11:46>  NORMAL TERMINATION
 <Jan03-2010> <17:11:46>  END
 <Jan03-2010> <17:11:46>  DIRAC 2009.01  RunTime: Jan03-2010 17:11:46
 <Jan03-2010> <17:11:46>  NORMAL TERMINATION
 <Jan03-2010> <17:11:46>  END
 <Jan03-2010> <17:11:46>  ADF 2009.01  RunTime: Jan03-2010 17:11:46
 <Jan03-2010> <17:11:46>  Oxygen (TZ2P)
 <Jan03-2010> <17:11:47>  RunType   : CREATE
 <Jan03-2010> <17:11:47>  Net Charge: 0 (Nuclei minus Electrons)
 <Jan03-2010> <17:11:47>  Symmetry  : ATOM
 <Jan03-2010> <17:11:47>  >>>> CORORT
 <Jan03-2010> <17:11:47>  >>>> FITINT
 <Jan03-2010> <17:11:47>  >>>> CLSMAT
 <Jan03-2010> <17:11:47>  >>>> ORTHON
 <Jan03-2010> <17:11:47>  >>>> GENPT
 <Jan03-2010> <17:11:47>  Acc.Num.Int.=  10.000
 <Jan03-2010> <17:11:47>  Block Length=  60
 <Jan03-2010> <17:11:47>  >>>> PTBAS
 <Jan03-2010> <17:11:47>  >>>> CYCLE
 <Jan03-2010> <17:11:47>    1
 <Jan03-2010> <17:11:47>    2  ErrMat   8.20790272  MaxEl  5.22935311
 <Jan03-2010> <17:11:47>    3  ErrMat   3.47781689  MaxEl -2.40346879
 <Jan03-2010> <17:11:47>    4  ErrMat   2.86738059  MaxEl -1.92400352
 <Jan03-2010> <17:11:47>    5  ErrMat   1.97418661  MaxEl -1.30124952
 <Jan03-2010> <17:11:47>    6  ErrMat   0.21992427  MaxEl -0.11850312
 <Jan03-2010> <17:11:47>    7  ErrMat   0.05714202  MaxEl  0.03097153
 <Jan03-2010> <17:11:47>    8  ErrMat   0.00644559  MaxEl -0.00346399
 <Jan03-2010> <17:11:47>    9  ErrMat   0.00010308  MaxEl  0.00005034
 <Jan03-2010> <17:11:47>   10  ErrMat   0.00000468  MaxEl  0.00000267
 <Jan03-2010> <17:11:47>   11  ErrMat   0.00000003  MaxEl -0.00000001
 <Jan03-2010> <17:11:47>   12  ErrMat   0.00000000  MaxEl  0.00000000
 <Jan03-2010> <17:11:47>  SCF converged
 <Jan03-2010> <17:11:47>   13  ErrMat   0.00000000  MaxEl  0.00000000
 <Jan03-2010> <17:11:47>   Solutions with partially occupied orbitals may not be
 <Jan03-2010> <17:11:47>   lowest in energy. You might consider lowering the
 <Jan03-2010> <17:11:47>   symmetry in the input and explicitly specifying integer
 <Jan03-2010> <17:11:47>   occupations. In that case always check that you obtain
 <Jan03-2010> <17:11:47>   an aufbau solution.
 <Jan03-2010> <17:11:47>  >>>> POPAN
 <Jan03-2010> <17:11:47>  >>>> DEBYE
 <Jan03-2010> <17:11:47>  NORMAL TERMINATION
 <Jan03-2010> <17:11:47>  END
 <Jan03-2010> <17:11:47>  ADF 2009.01  RunTime: Jan03-2010 17:11:47
 <Jan03-2010> <17:11:47>  water calculation
 <Jan03-2010> <17:11:47>  RunType   : GEOMETRY OPTIMIZATION
 <Jan03-2010> <17:11:47>  Net Charge: 0 (Nuclei minus Electrons)
 <Jan03-2010> <17:11:47>  Symmetry  : C(2V)
 <Jan03-2010> <17:11:47>  >>>> FRAGM
  Coordinates in Geometry Cycle 1
    Atom         X           Y           Z   (Angstrom)
    1.O         0.000000    0.000000    0.000000
    2.H         0.895670    0.000000   -0.316665
    3.H        -0.895670    0.000000   -0.316665
 <Jan03-2010> <17:11:47>  >>>> CORORT
 <Jan03-2010> <17:11:47>  >>>> FITINT
 <Jan03-2010> <17:11:47>  >>>> CLSMAT
 <Jan03-2010> <17:11:47>  >>>> ORTHON
 <Jan03-2010> <17:11:47>  >>>> GENPT
 <Jan03-2010> <17:11:47>  Acc.Num.Int.=   4.000
 <Jan03-2010> <17:11:47>  Block Length= 127
 <Jan03-2010> <17:11:47>  >>>> PTBAS
 <Jan03-2010> <17:11:47>  >>>> CYCLE
 <Jan03-2010> <17:11:47>    1
 <Jan03-2010> <17:11:47>    2  ErrMat   0.83611890  MaxEl  0.37801096
 <Jan03-2010> <17:11:47>    3  ErrMat   0.38775618  MaxEl  0.18340473
 <Jan03-2010> <17:11:47>    4  ErrMat   0.08837475  MaxEl -0.04202355
 <Jan03-2010> <17:11:48>    5  ErrMat   0.00277797  MaxEl  0.00094322
 <Jan03-2010> <17:11:48>  SCF converged
 <Jan03-2010> <17:11:48>    6  ErrMat   0.00055169  MaxEl -0.00027980
 <Jan03-2010> <17:11:48>  >>>> TOTEN
 <Jan03-2010> <17:11:48>  >>>> POPAN
 <Jan03-2010> <17:11:48>  >>>> DEBYE
 <Jan03-2010> <17:11:48>  >>>> AMETS
 <Jan03-2010> <17:11:48>  >>>> ENGRAD
 <Jan03-2010> <17:11:48>  current energy                               -0.49071023 Hartree
 <Jan03-2010> <17:11:48>  abs of energy change                0.49071023     0.00100000    F
 <Jan03-2010> <17:11:48>  constrained gradient max            0.10996192     0.00100000    F
 <Jan03-2010> <17:11:48>  constrained gradient rms            0.04628110     0.00066667    F
 <Jan03-2010> <17:11:48>  gradient max                        0.10996192
 <Jan03-2010> <17:11:48>  gradient rms                        0.04628110
 <Jan03-2010> <17:11:48>  cart. step max                      0.07548604     0.01000000    F
 <Jan03-2010> <17:11:48>  cart. step rms                      0.03527848     0.00666667    F
  Coordinates in Geometry Cycle 2
    Atom         X           Y           Z   (Angstrom)
    1.O         0.000000    0.000000    0.075486
    2.H         0.859242    0.000000   -0.354408
    3.H        -0.859242    0.000000   -0.354408
 <Jan03-2010> <17:11:48>  >>>> CORORT
 <Jan03-2010> <17:11:48>  >>>> FITINT
 <Jan03-2010> <17:11:48>  >>>> CLSMAT
 <Jan03-2010> <17:11:48>  >>>> ORTHON
 <Jan03-2010> <17:11:48>  >>>> GENPT
 <Jan03-2010> <17:11:48>  Acc.Num.Int.=   4.000
 <Jan03-2010> <17:11:48>  Not using previous cell geometry for gradient smoothing in this step.
 <Jan03-2010> <17:11:48>  Reason: Orientation change
 <Jan03-2010> <17:11:48>  Block Length= 127
 <Jan03-2010> <17:11:48>  >>>> PTBAS
 <Jan03-2010> <17:11:48>  >>>> CYCLE
 <Jan03-2010> <17:11:48>    1
 <Jan03-2010> <17:11:48>    2  ErrMat   0.06720258  MaxEl  0.03260469
 <Jan03-2010> <17:11:48>    3  ErrMat   0.04661946  MaxEl  0.02248704
 <Jan03-2010> <17:11:48>    4  ErrMat   0.00105679  MaxEl  0.00037258
 <Jan03-2010> <17:11:48>    5  ErrMat   0.00126504  MaxEl  0.00055179
 <Jan03-2010> <17:11:48>    6  ErrMat   0.00003154  MaxEl -0.00001332
 <Jan03-2010> <17:11:48>  SCF converged
 <Jan03-2010> <17:11:48>    7  ErrMat   0.00000229  MaxEl  0.00000079
 <Jan03-2010> <17:11:48>  >>>> TOTEN
 <Jan03-2010> <17:11:49>  >>>> POPAN
 <Jan03-2010> <17:11:49>  >>>> DEBYE
 <Jan03-2010> <17:11:49>  >>>> AMETS
 <Jan03-2010> <17:11:49>  >>>> ENGRAD
 <Jan03-2010> <17:11:49>  current energy                               -0.50361176 Hartree
 <Jan03-2010> <17:11:49>  abs of energy change                0.01290153     0.00100000    F
 <Jan03-2010> <17:11:49>  constrained gradient max            0.07708121     0.00100000    F
 <Jan03-2010> <17:11:49>  constrained gradient rms            0.03510317     0.00066667    F
 <Jan03-2010> <17:11:49>  gradient max                        0.07708121
 <Jan03-2010> <17:11:49>  gradient rms                        0.03510317
 <Jan03-2010> <17:11:49>  cart. step max                      0.07226490     0.01000000    F
 <Jan03-2010> <17:11:49>  cart. step rms                      0.03527848     0.00666667    F
  Coordinates in Geometry Cycle 3
    Atom         X           Y           Z   (Angstrom)
    1.O         0.000000    0.000000    0.147751
    2.H         0.818207    0.000000   -0.390540
    3.H        -0.818207    0.000000   -0.390540
 <Jan03-2010> <17:11:49>  >>>> CORORT
 <Jan03-2010> <17:11:49>  >>>> FITINT
 <Jan03-2010> <17:11:49>  >>>> CLSMAT
 <Jan03-2010> <17:11:49>  >>>> ORTHON
 <Jan03-2010> <17:11:49>  >>>> GENPT
 <Jan03-2010> <17:11:49>  Acc.Num.Int.=   4.000
 <Jan03-2010> <17:11:49>  Block Length= 124
 <Jan03-2010> <17:11:49>  >>>> PTBAS
 <Jan03-2010> <17:11:49>  >>>> CYCLE
 <Jan03-2010> <17:11:49>    1
 <Jan03-2010> <17:11:49>    2  ErrMat   0.06049864  MaxEl  0.02827193
 <Jan03-2010> <17:11:49>    3  ErrMat   0.04197111  MaxEl  0.01940895
 <Jan03-2010> <17:11:49>    4  ErrMat   0.00940674  MaxEl  0.00408561
 <Jan03-2010> <17:11:49>    5  ErrMat   0.00156503  MaxEl -0.00064852
 <Jan03-2010> <17:11:49>    6  ErrMat   0.00001234  MaxEl  0.00000388
 <Jan03-2010> <17:11:49>  SCF converged
 <Jan03-2010> <17:11:49>    7  ErrMat   0.00000172  MaxEl  0.00000059
 <Jan03-2010> <17:11:49>  >>>> TOTEN
 <Jan03-2010> <17:11:49>  >>>> POPAN
 <Jan03-2010> <17:11:49>  >>>> DEBYE
 <Jan03-2010> <17:11:49>  >>>> AMETS
 <Jan03-2010> <17:11:49>  >>>> ENGRAD
 <Jan03-2010> <17:11:50>  current energy                               -0.51153598 Hartree
 <Jan03-2010> <17:11:50>  abs of energy change                0.00792422     0.00100000    F
 <Jan03-2010> <17:11:50>  constrained gradient max            0.04211260     0.00100000    F
 <Jan03-2010> <17:11:50>  constrained gradient rms            0.01996526     0.00066667    F
 <Jan03-2010> <17:11:50>  gradient max                        0.04211260
 <Jan03-2010> <17:11:50>  gradient rms                        0.01996526
 <Jan03-2010> <17:11:50>  cart. step max                      0.05232229     0.01000000    F
 <Jan03-2010> <17:11:50>  cart. step rms                      0.03103218     0.00666667    F
  Coordinates in Geometry Cycle 4
    Atom         X           Y           Z   (Angstrom)
    1.O         0.000000    0.000000    0.193879
    2.H         0.765884    0.000000   -0.413605
    3.H        -0.765884    0.000000   -0.413605
 <Jan03-2010> <17:11:50>  >>>> CORORT
 <Jan03-2010> <17:11:50>  >>>> FITINT
 <Jan03-2010> <17:11:50>  >>>> CLSMAT
 <Jan03-2010> <17:11:50>  >>>> ORTHON
 <Jan03-2010> <17:11:50>  >>>> GENPT
 <Jan03-2010> <17:11:50>  Acc.Num.Int.=   4.000
 <Jan03-2010> <17:11:50>  Not using previous cell geometry for gradient smoothing in this step.
 <Jan03-2010> <17:11:50>  Reason: Orientation change
 <Jan03-2010> <17:11:50>  Block Length= 128
 <Jan03-2010> <17:11:50>  >>>> PTBAS
 <Jan03-2010> <17:11:50>  >>>> CYCLE
 <Jan03-2010> <17:11:50>    1
 <Jan03-2010> <17:11:50>    2  ErrMat   0.03578661  MaxEl  0.01551725
 <Jan03-2010> <17:11:50>    3  ErrMat   0.02470476  MaxEl  0.01055751
 <Jan03-2010> <17:11:50>    4  ErrMat   0.01386797  MaxEl  0.00584015
 <Jan03-2010> <17:11:50>    5  ErrMat   0.00085990  MaxEl  0.00028281
 <Jan03-2010> <17:11:50>    6  ErrMat   0.00000874  MaxEl -0.00000300
 <Jan03-2010> <17:11:50>  SCF converged
 <Jan03-2010> <17:11:50>    7  ErrMat   0.00000119  MaxEl  0.00000045
 <Jan03-2010> <17:11:50>  >>>> TOTEN
 <Jan03-2010> <17:11:50>  >>>> POPAN
 <Jan03-2010> <17:11:50>  >>>> DEBYE
 <Jan03-2010> <17:11:50>  >>>> AMETS
 <Jan03-2010> <17:11:50>  >>>> ENGRAD
 <Jan03-2010> <17:11:50>  current energy                               -0.51386389 Hartree
 <Jan03-2010> <17:11:50>  abs of energy change                0.00232791     0.00100000    F
 <Jan03-2010> <17:11:50>  constrained gradient max            0.02696200     0.00100000    F
 <Jan03-2010> <17:11:50>  constrained gradient rms            0.01337355     0.00066667    F
 <Jan03-2010> <17:11:50>  gradient max                        0.02696200
 <Jan03-2010> <17:11:50>  gradient rms                        0.01337355
 <Jan03-2010> <17:11:50>  cart. step max                      0.00926006     0.01000000    T
 <Jan03-2010> <17:11:50>  cart. step rms                      0.00449029     0.00666667    T
  Coordinates in Geometry Cycle 5
    Atom         X           Y           Z   (Angstrom)
    1.O         0.000000    0.000000    0.184619
    2.H         0.760744    0.000000   -0.408975
    3.H        -0.760744    0.000000   -0.408975
 <Jan03-2010> <17:11:50>  >>>> CORORT
 <Jan03-2010> <17:11:50>  >>>> FITINT
 <Jan03-2010> <17:11:50>  >>>> CLSMAT
 <Jan03-2010> <17:11:50>  >>>> ORTHON
 <Jan03-2010> <17:11:50>  >>>> GENPT
 <Jan03-2010> <17:11:51>  Acc.Num.Int.=   4.000
 <Jan03-2010> <17:11:51>  Not using previous cell geometry for gradient smoothing in this step.
 <Jan03-2010> <17:11:51>  Reason: Orientation change
 <Jan03-2010> <17:11:51>  Block Length= 127
 <Jan03-2010> <17:11:51>  >>>> PTBAS
 <Jan03-2010> <17:11:51>  >>>> CYCLE
 <Jan03-2010> <17:11:51>    1
 <Jan03-2010> <17:11:51>    2  ErrMat   0.01117492  MaxEl -0.00474144
 <Jan03-2010> <17:11:51>    3  ErrMat   0.00759644  MaxEl -0.00327182
 <Jan03-2010> <17:11:51>    4  ErrMat   0.00384764  MaxEl  0.00176133
 <Jan03-2010> <17:11:51>    5  ErrMat   0.00027312  MaxEl -0.00012267
 <Jan03-2010> <17:11:51>    6  ErrMat   0.00000525  MaxEl -0.00000231
 <Jan03-2010> <17:11:51>  SCF converged
 <Jan03-2010> <17:11:51>    7  ErrMat   0.00000074  MaxEl  0.00000039
 <Jan03-2010> <17:11:51>  >>>> TOTEN
 <Jan03-2010> <17:11:51>  >>>> POPAN
 <Jan03-2010> <17:11:51>  >>>> DEBYE
 <Jan03-2010> <17:11:51>  >>>> AMETS
 <Jan03-2010> <17:11:51>  >>>> ENGRAD
 <Jan03-2010> <17:11:51>  current energy                               -0.51413145 Hartree
 <Jan03-2010> <17:11:51>  abs of energy change                0.00026755     0.00100000    T
 <Jan03-2010> <17:11:51>  constrained gradient max            0.00159540     0.00100000    F
 <Jan03-2010> <17:11:51>  constrained gradient rms            0.00065495     0.00066667    T
 <Jan03-2010> <17:11:51>  gradient max                        0.00159540
 <Jan03-2010> <17:11:51>  gradient rms                        0.00065495
 <Jan03-2010> <17:11:51>  cart. step max                      0.00110057     0.01000000    T
 <Jan03-2010> <17:11:51>  cart. step rms                      0.00056371     0.00666667    T
  Coordinates in Geometry Cycle 6
    Atom         X           Y           Z   (Angstrom)
    1.O         0.000000    0.000000    0.185720
    2.H         0.760022    0.000000   -0.409525
    3.H        -0.760022    0.000000   -0.409525
 <Jan03-2010> <17:11:51>  >>>> CORORT
 <Jan03-2010> <17:11:51>  >>>> FITINT
 <Jan03-2010> <17:11:51>  >>>> CLSMAT
 <Jan03-2010> <17:11:51>  >>>> ORTHON
 <Jan03-2010> <17:11:51>  >>>> GENPT
 <Jan03-2010> <17:11:51>  Acc.Num.Int.=   4.000
 <Jan03-2010> <17:11:51>  Not using previous cell geometry for gradient smoothing in this step.
 <Jan03-2010> <17:11:51>  Reason: Orientation change
 <Jan03-2010> <17:11:51>  Block Length= 128
 <Jan03-2010> <17:11:51>  >>>> PTBAS
 <Jan03-2010> <17:11:51>  >>>> CYCLE
 <Jan03-2010> <17:11:52>    1
 <Jan03-2010> <17:11:52>    2  ErrMat   0.00107112  MaxEl  0.00048028
 <Jan03-2010> <17:11:52>    3  ErrMat   0.00073940  MaxEl  0.00032963
 <Jan03-2010> <17:11:52>    4  ErrMat   0.00010502  MaxEl -0.00004696
 <Jan03-2010> <17:11:52>    5  ErrMat   0.00003731  MaxEl  0.00001637
 <Jan03-2010> <17:11:52>  SCF converged
 <Jan03-2010> <17:11:52>    6  ErrMat   0.00000013  MaxEl  0.00000004
 <Jan03-2010> <17:11:52>  >>>> TOTEN
 <Jan03-2010> <17:11:52>  >>>> POPAN
 <Jan03-2010> <17:11:52>  >>>> DEBYE
 <Jan03-2010> <17:11:52>  >>>> AMETS
 <Jan03-2010> <17:11:52>  >>>> ENGRAD
 <Jan03-2010> <17:11:52>  current energy                               -0.51413296 Hartree
 <Jan03-2010> <17:11:52>  abs of energy change                0.00000151     0.00100000    T
 <Jan03-2010> <17:11:52>  constrained gradient max            0.00001283     0.00100000    T
 <Jan03-2010> <17:11:52>  constrained gradient rms            0.00000609     0.00066667    T
 <Jan03-2010> <17:11:52>  gradient max                        0.00001283
 <Jan03-2010> <17:11:52>  gradient rms                        0.00000609
 <Jan03-2010> <17:11:52>  cart. step max                      0.00001821     0.01000000    T
 <Jan03-2010> <17:11:52>  cart. step rms                      0.00000976     0.00666667    T
 <Jan03-2010> <17:11:52>  GEOMETRY CONVERGED
 <Jan03-2010> <17:11:52>  Calculating Energy Terms for Final Geometry
  Coordinates in Geometry Cycle 6
    Atom         X           Y           Z   (Angstrom)
    1.O         0.000000    0.000000    0.185720
    2.H         0.760022    0.000000   -0.409525
    3.H        -0.760022    0.000000   -0.409525
 <Jan03-2010> <17:11:52>  >>>> CORORT
 <Jan03-2010> <17:11:52>  >>>> FITINT
 <Jan03-2010> <17:11:52>  >>>> CLSMAT
 <Jan03-2010> <17:11:52>  >>>> ORTHON
 <Jan03-2010> <17:11:52>  >>>> GENPT
 <Jan03-2010> <17:11:52>  Acc.Num.Int.=   4.000
 <Jan03-2010> <17:11:52>  Not using previous cell geometry for gradient smoothing in this step.
 <Jan03-2010> <17:11:52>  Reason: Orientation change
 <Jan03-2010> <17:11:52>  Block Length= 128
 <Jan03-2010> <17:11:52>  >>>> PTBAS
 <Jan03-2010> <17:11:52>  >>>> CYCLE
 <Jan03-2010> <17:11:52>    1
 <Jan03-2010> <17:11:52>    2  ErrMat   0.00000005  MaxEl  0.00000002
 <Jan03-2010> <17:11:52>  SCF converged
 <Jan03-2010> <17:11:52>    3  ErrMat   0.00000002  MaxEl  0.00000001
 <Jan03-2010> <17:11:52>  >>>> TOTEN
 <Jan03-2010> <17:11:53>  >>>> POPAN
 <Jan03-2010> <17:11:53>  >>>> DEBYE
 <Jan03-2010> <17:11:53>  >>>> AMETS
 <Jan03-2010> <17:11:53>  >>>> POPUL
 <Jan03-2010> <17:11:53>   Bond Energy LDA      -0.51271537 a.u.
 <Jan03-2010> <17:11:53>   Bond Energy LDA     -13.95169504 eV
 <Jan03-2010> <17:11:53>           + GGA-X      -0.47500904 a.u.
 <Jan03-2010> <17:11:53>           + GGA-X     -12.92565361 eV
 <Jan03-2010> <17:11:53>          + GGA-XC      -0.51413296 a.u.
 <Jan03-2010> <17:11:53>          + GGA-XC     -13.99026974 eV
 <Jan03-2010> <17:11:53>  NORMAL TERMINATION
 <Jan03-2010> <17:11:53>  END
 <Jan04-2010> <10:38:40>  DIRAC 2009.01  RunTime: Jan04-2010 10:38:40
 <Jan04-2010> <10:38:40>  NORMAL TERMINATION
 <Jan04-2010> <10:38:40>  END
 <Jan04-2010> <10:38:40>  ADF 2009.01  RunTime: Jan04-2010 10:38:40
 <Jan04-2010> <10:38:40>  Hydrogen (TZ2P)
 <Jan04-2010> <10:38:40>  RunType   : CREATE
 <Jan04-2010> <10:38:40>  Net Charge: 0 (Nuclei minus Electrons)
 <Jan04-2010> <10:38:40>  Symmetry  : ATOM
 <Jan04-2010> <10:38:40>  >>>> CORORT
 <Jan04-2010> <10:38:40>  >>>> FITINT
 <Jan04-2010> <10:38:40>  >>>> CLSMAT
 <Jan04-2010> <10:38:40>  >>>> ORTHON
 <Jan04-2010> <10:38:40>  >>>> GENPT
 <Jan04-2010> <10:38:40>  Acc.Num.Int.=  10.000
 <Jan04-2010> <10:38:40>  Block Length=  41
 <Jan04-2010> <10:38:40>  >>>> PTBAS
 <Jan04-2010> <10:38:40>  >>>> CYCLE
 <Jan04-2010> <10:38:40>    1
 <Jan04-2010> <10:38:40>    2  ErrMat   0.00333796  MaxEl -0.00317312
 <Jan04-2010> <10:38:40>    3  ErrMat   0.00120595  MaxEl  0.00120509
 <Jan04-2010> <10:38:41>    4  ErrMat   0.00004249  MaxEl  0.00003893
 <Jan04-2010> <10:38:41>    5  ErrMat   0.00000009  MaxEl -0.00000008
 <Jan04-2010> <10:38:41>    6  ErrMat   0.00000000  MaxEl  0.00000000
 <Jan04-2010> <10:38:41>  SCF converged
 <Jan04-2010> <10:38:41>    7  ErrMat   0.00000000  MaxEl  0.00000000
 <Jan04-2010> <10:38:41>   Solutions with partially occupied orbitals may not be
 <Jan04-2010> <10:38:41>   lowest in energy. You might consider lowering the
 <Jan04-2010> <10:38:41>   symmetry in the input and explicitly specifying integer
 <Jan04-2010> <10:38:41>   occupations. In that case always check that you obtain
 <Jan04-2010> <10:38:41>   an aufbau solution.
 <Jan04-2010> <10:38:41>  >>>> POPAN
 <Jan04-2010> <10:38:41>  >>>> DEBYE
 <Jan04-2010> <10:38:41>  NORMAL TERMINATION
 <Jan04-2010> <10:38:41>  END
NORMAL TERMINATION

 *******************************************************************************
 *                                                                             *
 *  -------------------------------------                                      *
 *   Amsterdam Density Functional  (ADF)         2009.01   September 29th, 2009*
 *  -------------------------------------                                      *
 *                                               Build 200909271755            *
 *                                                                             *
 *                                                                             *
 *                            =====================                            *
 *                            |                   |                            *
 *                            |     D I R A C     |                            *
 *                            |                   |                            *
 *                            =====================                            *
 *                                                                             *
 *                                                                             *
 *   Online information and documentation:  http://www.scm.com                 *
 *   E-mail:  support@scm.com   info@scm.com                                   *
 *                                                                             *
 *   Scientific publications using ADF results must be properly referenced     *
 *   See the User Manuals (or the web site) for recommended citations          *
 *   The terms and conditions of the End User License Agreement apply to       *
 *   the use of ADF, http://www.scm.com/Sales/LicAgreement.html                *
 *                                                                             *
 ************************  pentium_linux_ifc / hpmpi  **************************
 
 DIRAC 2009.01  RunTime: Jan04-2010 10:38:41

 Temporary files are created in /home/kit/Documents/calcs_local/oh2/kid_0.iEheJc

1
 OXYGEN ATOM all electron RELATIVISTIC, Point Nuc, A and c fr
 N J RN H ZN XION ANUC CLIGHT
 5000    4100.00000000197.36710137  8.00000000  0.00000000   15.994914  0.1370360E+03
  PH   PHI     EPS        DEL        DELRVR
  0.30  0.30     2500.00  0.00001000  0.00001000
 IDIRC  NC1  NDEBU NPRIN  IPUN IRCOR IWCOR
   1   300     0     0     0     0     0
   XALPHA      XLATTER      RNUC
  0.70000000  0.00000000  0.00000000 Point Charge
   XN   XL   XJ      XE          XZ      XDELL
  1.0  0.0  0.5      -5.000       2.000     0.00000
  2.0  0.0  0.5      -1.000       2.000     0.00000
  2.0  1.0  0.5      -1.000       2.000     0.00000
  2.0  1.0  1.5      -1.000       2.000     0.00000
 ICORP=  0  NPCL=  0  DEMP=0.00  PEPS=0.000000
 R(1)=  0.1000000E-08 D=  0.1005080E+01 RNUC=  0.0000000E+00
 converged at cycle   28  DENSITY AVERAGING    0.2400
  MAXIMUM ERROR IN R.V(R) IS   0.81125670E-05
 Q,EY,EV,EZ,ESUM,ETOT,RHO  0.800000E+01 -0.101247E+02 -0.114961E+03 -0.177573E+03 -0.405053E+02 -0.743427E+02  0.414766E-14


 DIRAC CALCULATION
1                    OXYGEN ATOM all electron RELATIVISTIC, Point Nuc, A and c from libtc


 EXCHANGE COEFFICIENT=  0.7000000           TAIL CORRECTION=  0.           NUCLEAR RADIUS=  0.000E+00
0                       ORBITAL    N    L    J     ELECTRONS     EIGENVALUE                DELTA OF EIGENV.

                          1S1/2  1.0  0.0  0.5     2.000       -0.1880014E+02                 0.7264359E-06
                          2S1/2  2.0  0.0  0.5     2.000       -0.8412236E+00                 0.5932752E-05
                          2P1/2  2.0  1.0  0.5     2.000       -0.3063203E+00                 0.5998471E-05
                          2P3/2  2.0  1.0  1.5     2.000       -0.3049609E+00                 0.5986971E-05


                                        NUCLEAR CHARGE=    8.000000
                            INTEGRAL OF CHARGE DENSITY=    8.000000
                           SUM OF THE ORBITAL ENERGIES=    -40.5053
                                          TOTAL ENERGY=    -74.3427
                                        KINETIC ENERGY=     74.4552
                             NUCLEAR ATTRACTION ENERGY=   -177.5730
                             ELECTRON REPULSION ENERGY=     36.3686
                                       EXCHANGE ENERGY=     -7.5935

 *******************************************************************************

                             D I R A C   E X I T
 NORMAL TERMINATION



 =================
 Timing Statistics
 =================
  
 Total Used :                     CPU=        0.25      System=        0.04     Elapsed=        0.30

 Calls  Section                     ( Mean, Percentage )
 ---------------------------------------------------------------------------------------------------
     2  ><      ................      0.00    0.00             0.00    0.00             0.00    0.01
     1  EXIT PROCEDURE .........      0.25  100.00             0.04  100.00             0.30   99.99


 Currently Open Files (EXIT00)
 ====================

 Unit    Access Format  Status   Type       Ident (file)
 -------------------------------------------------------
   3      SEQ    FORM   TRANSP  NORMAL      LOGFILE
                                          ( logfile )


 Buffered I/O statistics
 =======================
 Memory available:                     67108864
 Number of records fitting in memory:     16225
 Input : 100.0% of                            0  *4k bytes
 Output: 100.0% of                            0  *4k bytes
 Records from serial files evicted:           0
                    others evicted:           0
 Hash table lookups:          0 with          0 conflicts (100.00%)
NORMAL TERMINATION
(INPUT FILE)
Create O   file=/home/kit/adf/adf2009.01/atomicdata/ZORA/TZ2P/O
XC
  GGA OLYP
End
relativistic ZORA
Corepotentials t12.rel
End Input

 *******************************************************************************
 *                                                                             *
 *  -------------------------------------                                      *
 *   Amsterdam Density Functional  (ADF)         2009.01   September 29th, 2009*
 *  -------------------------------------                                      *
 *                                               Build 200909271755            *
 *                                                                             *
 *                                                                             *
 *                              =================                              *
 *                              |               |                              *
 *                              |     A D F     |                              *
 *                              |               |                              *
 *                              =================                              *
 *                                                                             *
 *                                                                             *
 *   Online information and documentation:  http://www.scm.com                 *
 *   E-mail:  support@scm.com   info@scm.com                                   *
 *                                                                             *
 *   Scientific publications using ADF results must be properly referenced     *
 *   See the User Manuals (or the web site) for recommended citations          *
 *   The terms and conditions of the End User License Agreement apply to       *
 *   the use of ADF, http://www.scm.com/Sales/LicAgreement.html                *
 *                                                                             *
 ************************  pentium_linux_ifc / hpmpi  **************************
 
 ADF 2009.01  RunTime: Jan04-2010 10:38:41

 Temporary files are created in /home/kit/Documents/calcs_local/oh2/kid_0.Ra6VyE

 Oxygen (TZ2P)



 ===========================
 A T T A C H E D   F I L E S
 ===========================
  
 CREATE - Data File:    /home/kit/adf/adf2009.01/atomicdata/ZORA/TZ2P/O
                        Oxygen (TZ2P)
 Core Potentials:
         file : t12.rel



 ===============================
 M O D E L   P A R A M E T E R S
 ===============================
  
 DENSITY FUNCTIONAL POTENTIAL (scf)
    LDA:                               Exchange only                           == Not Default ==
    Gradient Corrections:              OPTX LYP                                == Not Default ==

 SPIN  (restricted / unrestr.)
    Molecule:                          Restricted                               

 OTHER ASPECTS
    Relativistic Corrections:          scalar (ZORA,SAPA)                       *** SPECIAL ***

    Nuclear Charge Density Model:      Point Charge Nuclei                                                                                                                                                                                     
    Core Treatment:                    Frozen Orbital(s)                        

    Electric Field:                    ---                                      

    Hyperfine or Zeeman Interaction:   ---                                      



 =====================================
 S Y M M E T R Y ,   E L E C T R O N S
 =====================================
  
 Symmetry: ATOM

 Irreducible Representations, including subspecies
 -------------------------------------------------
 S
 P:x  P:y  P:z
 D:z2  D:x2-y2  D:xy  D:xz  D:yz
 F:z3  F:z  F:xyz  F:z2x  F:z2y  F:x  F:y


 Configuration of Valence Electrons
 ==================================

          Occupation Numbers
          -------------------------------------------------
 S        2*2
 P        4
 D        0
 F        0
          -------------------------------------------------

 Total:   8

 Net Charge: 0 (Nuclei minus Electrons)

 Preset values for MO occupations will be applied through SCF cycle no. 1000000
 Thereafter, the program will assign electrons to MOs that are spatially
 similar to the occupied MOs in a "reference" cycle ("KeepOrbitals").
 The reference cycle is always the PREVIOUS cycle: it will evolve with
 the SCF procedure.



 ================================
 (Slater-type)  F U N C T I O N S  ***  (Basis and Fit)  ***
 ================================
  

 Atom Type    1  (O)
 ==============

 Valence Basis Sets:  10
 -----------------------
   1 S    9.800000
   1 S    6.800000
   2 S    7.580000
   2 S    2.880000
   2 S    1.720000
   2 P    4.080000
   2 P    2.080000
   2 P    1.120000
   3 D    2.000000
   4 F    3.000000

 Charge Fitting Sets (for the computation of the Coulomb Potential):  22
 -----------------------------------------------------------------------
   1 S   19.600000
   2 S   22.600000
   2 S   15.680000
   2 S   10.890000
   2 S    7.560000
   3 S    7.690000
   3 S    5.650000
   3 S    4.150000
   3 S    3.050000
   3 S    2.240000
   2 P   12.860000
   2 P    7.680000
   3 P    6.780000
   3 P    4.390000
   3 P    2.840000
   3 D    8.800000
   3 D    5.580000
   3 D    3.530000
   3 D    2.240000
   4 F    6.200000
   4 F    3.700000
   5 G    4.500000


 BAS: List of all Elementary Cartesian Basis Functions
 =====================================================

 The numbering in the list below (to the right of the function characteristics) is referred
 to in print-outs of MO eigenvectors and Mulliken populations in the BAS representation
 (as contrasted to the SFO representation).

 Notes:
 1. The functions are characterized by a polynomial prefactor (powers of x,y,z and r) and
    an exponential decay factor alpha.
 2. Since the basis sets are specific for an atom TYPE, the individual functions occur on
    all atoms of that type.
 3. The word 'Core' in the left margin signals that it is a Core Function (CF) : not a
    degree of freedom in the valence set, but only used to ensure orthogonalization of
    the other valence basis functions on the frozen Core Orbitals.


 (power of) X  Y  Z  R     Alpha  on Atom
            ==========     =====     ==========

 O                                    1
                                  ---------------------------------------------------------------------------
            0  0  0  0     9.800      1
            0  0  0  0     6.800      2
            0  0  0  1     7.580      3
            0  0  0  1     2.880      4
            0  0  0  1     1.720      5
            1  0  0  0     4.080      6
            0  1  0  0     4.080      7
            0  0  1  0     4.080      8
            1  0  0  0     2.080      9
            0  1  0  0     2.080     10
            0  0  1  0     2.080     11
            1  0  0  0     1.120     12
            0  1  0  0     1.120     13
            0  0  1  0     1.120     14
            2  0  0  0     2.000     15
            1  1  0  0     2.000     16
            1  0  1  0     2.000     17
            0  2  0  0     2.000     18
            0  1  1  0     2.000     19
            0  0  2  0     2.000     20
            3  0  0  0     3.000     21
            2  1  0  0     3.000     22
            2  0  1  0     3.000     23
            1  2  0  0     3.000     24
            1  1  1  0     3.000     25
            1  0  2  0     3.000     26
            0  3  0  0     3.000     27
            0  2  1  0     3.000     28
            0  1  2  0     3.000     29
            0  0  3  0     3.000     30

 Total number of charge fitting functions (nprimf)        84
 Total number of Cartesian basis functions (naos)         30
 Total number of Cartesian core functions  (ncos)          0



 BAS: List of all Elementary Cartesian Basis Functions
 =====================================================

 The numbering in the list below (to the right of the function characteristics) is referred
 to in print-outs of MO eigenvectors and Mulliken populations in the BAS representation
 (as contrasted to the SFO representation).

 Notes:
 1. The functions are characterized by a polynomial prefactor (powers of x,y,z and r) and
    an exponential decay factor alpha.
 2. Since the basis sets are specific for an atom TYPE, the individual functions occur on
    all atoms of that type.
 3. The word 'Core' in the left margin signals that it is a Core Function (CF) : not a
    degree of freedom in the valence set, but only used to ensure orthogonalization of
    the other valence basis functions on the frozen Core Orbitals.


 (power of) X  Y  Z  R     Alpha  on Atom
            ==========     =====     ==========

 O                                    1
                                  ---------------------------------------------------------------------------
            0  0  0  0     9.800      1
            0  0  0  0     6.800      2
            0  0  0  1     7.580      3
            0  0  0  1     2.880      4
            0  0  0  1     1.720      5
            1  0  0  0     4.080      6
            0  1  0  0     4.080      7
            0  0  1  0     4.080      8
            1  0  0  0     2.080      9
            0  1  0  0     2.080     10
            0  0  1  0     2.080     11
            1  0  0  0     1.120     12
            0  1  0  0     1.120     13
            0  0  1  0     1.120     14
            2  0  0  0     2.000     15
            1  1  0  0     2.000     16
            1  0  1  0     2.000     17
            0  2  0  0     2.000     18
            0  1  1  0     2.000     19
            0  0  2  0     2.000     20
            3  0  0  0     3.000     21
            2  1  0  0     3.000     22
            2  0  1  0     3.000     23
            1  2  0  0     3.000     24
            1  1  1  0     3.000     25
            1  0  2  0     3.000     26
            0  3  0  0     3.000     27
            0  2  1  0     3.000     28
            0  1  2  0     3.000     29
            0  0  3  0     3.000     30
1
 ***************************************************************************************************



                                              ***********************
                                              *  T E C H N I C A L  *
                                              ***********************
  



 =============================================================
 P A R A L L E L I Z A T I O N  and  V E C T O R I Z A T I O N
 =============================================================
  
 Nr of parallel processes:                                1
 Maximum vector length in NumInt loops:                 128



 ===============
 I O  vs.  C P U  ***  (store numerical data on disk or recalculate)  ***
 ===============
  
 Basis functions:   recalculate when needed
 Fit functions:     recalculate when needed

 IO buffersize (Mb):                                     64.000000



 =====================
 S C F   U P D A T E S
 =====================
  
 Max. nr. of cycles:                               100
 Convergence criterion:                              0.0000000100
   secondary criterion:                              0.0000000100

 Mix parameter (when DIIS does not apply):           0.2000000000
 Special mix parameter for the first cycle:          1.0000000000


 DIIS (Direct Inversion in Iteration Space)
    Replace damping when SCF Error is below:         0.5000000000
    Apply anyway after SCF cycle:
                                                     5
    (Max.) nr. of expansion vectors:                10

    Upperbound on expansion coefficients:            5.0000000000
    (when exceeded, IterationSpace is re-built)
    2nd Upperbound on coefficients:                 25.0000000000
    (when exceeded, simple damping will be used)
 Automatic ElectronSmearing (in case of problematic SCF convergence) disabled



 =================
 P R E C I S I O N  ***  (General: NumInt, NeglectFunctionTails, ...)  ***
 =================
  

 NumInt:           Target precision:                10.0000000000
 -------           Initial precision:               10.0000000000
                   Min. precision (optimization):   10.0000000000

 Neglect Functions:          Basis functions:        0.1000000000E-11
 ------------------          Fit functions:          0.1000000000E-11



 ===========================
 L I N E A R   S C A L I N G
 ===========================
  

 Cut-off radii density fit:                        0.1000000000E-13
 Overlap cut-off criterion AO matrix elements:     0.1000000000E-11
 Cut-offs for Coulomb potential and fitted density:0.1000000000E-13
 Cut-off criterion for Coulomb multipole terms:    0.1000000000E-13
 Progressive Convergence parameter:                 0.000000000    
1
 ***************************************************************************************************



                                            ***************************
                                            *  C O M P U T A T I O N  *
                                            ***************************
  

 Number of elements of the density matrix on this node (used, total):       465       465



 ====================================================
 Numerical Integration : Voronoi Polyhedra (Te Velde)  ***  (parameters, tests)  ***
 ====================================================
  
 General Accuracy Parameter :                         10.00

 Symmetry used in the points section:  ATOM  


 Summary of the Symmetry Unique Points:
 --------------------------------------
    Nr. of used Symmetry Operators                     1

    Points in the Atomic Spheres                      60
    Points in the Atomic Polyhedra                     0
    Points in the Outer Region                         0
    ----------------------------------------------------
    Total                                             60

    Sum of Weights                                 58501.056183

 Total nr. of points:         60
 Nr. of blocks:                1
 Block length:                60
 Nr. of dummy points:          0


 Test of Precision of the Numerical Integration Grid
 ===================================================

 Integral of the Total Core Density:                   0.00000000000000



 =====
 S C F
 =====
  

 CYCLE    1
 orbitals (Q,E):
 ---------------
 S :1...5            ( 2.00   -29.9398)  ( 2.00    -6.4879)  ( 0.00    -2.7264)  ( 0.00     5.8249)
                     ( 0.00   110.2844)
 P :1...3            ( 4.00    -6.3749)  ( 0.00    -2.5904)  ( 0.00    -1.1565)
 D :1...1            ( 0.00    -2.5202)
 F :1...1            ( 0.00    -0.5993)

 CYCLE    2
 d-Pmat  mean:  0.96E+00
 imax=      2: -0.10E+02
 orbitals (Q,E):
 ---------------
 S :1...3            ( 2.00   -14.9354)  ( 2.00    -0.0665)  ( 0.00     1.6797)
 P :1...2            ( 4.00     0.1741)  ( 0.00     1.1608)
 D :1...1            ( 0.00     1.4920)
 F :1...1            ( 0.00     3.9066)

 CYCLE    3
 d-Pmat  mean:  0.22E+00
 imax=      2: -0.13E+01
 orbitals (Q,E):
 ---------------
 S :1...3            ( 2.00   -16.3781)  ( 2.00    -0.4038)  ( 0.00     1.2233)
 P :1...2            ( 4.00     0.0121)  ( 0.00     0.7315)
 D :1...1            ( 0.00     1.2448)
 F :1...1            ( 0.00     3.6015)

 CYCLE    4
 d-Pmat  mean:  0.12E+00
 imax=     14: -0.73E+00
 orbitals (Q,E):
 ---------------
 S :1...3            ( 2.00   -17.3725)  ( 2.00    -0.6597)  ( 0.00     0.9611)
 P :1...2            ( 4.00    -0.1504)  ( 0.00     0.4952)
 D :1...1            ( 0.00     1.0924)
 F :1...1            ( 0.00     3.4108)

 CYCLE    5
 d-Pmat  mean:  0.14E+00
 imax=      5: -0.63E+00
 orbitals (Q,E):
 ---------------
 S :1...3            ( 2.00   -18.7541)  ( 2.00    -0.8149)  ( 0.00     0.8457)
 P :1...2            ( 4.00    -0.2612)  ( 0.00     0.3957)
 D :1...1            ( 0.00     1.1130)
 F :1...1            ( 0.00     3.4021)

 CYCLE    6
 d-Pmat  mean:  0.24E-01
 imax=      4:  0.12E+00
 orbitals (Q,E):
 ---------------
 S :1...3            ( 2.00   -18.9555)  ( 2.00    -0.9001)  ( 0.00     0.7961)
 P :1...2            ( 4.00    -0.3417)  ( 0.00     0.3489)
 D :1...1            ( 0.00     1.0657)
 F :1...1            ( 0.00     3.3442)

 CYCLE    7
 d-Pmat  mean:  0.47E-02
 imax=      4: -0.22E-01
 orbitals (Q,E):
 ---------------
 S :1...3            ( 2.00   -18.9215)  ( 2.00    -0.8844)  ( 0.00     0.8064)
 P :1...2            ( 4.00    -0.3264)  ( 0.00     0.3523)
 D :1...1            ( 0.00     1.0740)
 F :1...1            ( 0.00     3.3547)

 CYCLE    8
 d-Pmat  mean:  0.49E-03
 imax=      4:  0.22E-02
 orbitals (Q,E):
 ---------------
 S :1...3            ( 2.00   -18.9254)  ( 2.00    -0.8863)  ( 0.00     0.8051)
 P :1...2            ( 4.00    -0.3282)  ( 0.00     0.3517)
 D :1...1            ( 0.00     1.0728)
 F :1...1            ( 0.00     3.3533)

 CYCLE    9
 d-Pmat  mean:  0.75E-05
 imax=     11: -0.32E-04
 orbitals (Q,E):
 ---------------
 S :1...3            ( 2.00   -18.9253)  ( 2.00    -0.8863)  ( 0.00     0.8051)
 P :1...2            ( 4.00    -0.3282)  ( 0.00     0.3517)
 D :1...1            ( 0.00     1.0728)
 F :1...1            ( 0.00     3.3533)

 CYCLE   10
 d-Pmat  mean:  0.36E-06
 imax=      4: -0.17E-05
 orbitals (Q,E):
 ---------------
 S :1...3            ( 2.00   -18.9253)  ( 2.00    -0.8863)  ( 0.00     0.8051)
 P :1...2            ( 4.00    -0.3282)  ( 0.00     0.3517)
 D :1...1            ( 0.00     1.0728)
 F :1...1            ( 0.00     3.3533)

 CYCLE   11
 d-Pmat  mean:  0.32E-08
 imax=      4:  0.14E-07
 orbitals (Q,E):
 ---------------
 S :1...3            ( 2.00   -18.9253)  ( 2.00    -0.8863)  ( 0.00     0.8051)
 P :1...2            ( 4.00    -0.3282)  ( 0.00     0.3517)
 D :1...1            ( 0.00     1.0728)
 F :1...1            ( 0.00     3.3533)

 CYCLE   12
 d-Pmat  mean:  0.12E-09
 imax=      4: -0.52E-09
 orbitals (Q,E):
 ---------------
 S :1...3            ( 2.00   -18.9253)  ( 2.00    -0.8863)  ( 0.00     0.8051)
 P :1...2            ( 4.00    -0.3282)  ( 0.00     0.3517)
 D :1...1            ( 0.00     1.0728)
 F :1...1            ( 0.00     3.3533)

 SCF CONVERGED

 CYCLE   13
1
 ***************************************************************************************************



                                                *******************
                                                *  R E S U L T S  *
                                                *******************
  
 *** Setting up for NEW gradients in focky
 *** Using FIT density in focky

 Scaled ZORA Orbital Energies, per Irrep and Spin:
 =================================================
                        Occup              E (au)              E (eV)       Diff (eV) with prev. cycle
                        -----      --------------------        ------       --------------------------
 S
               1        2.000     -0.18925312066069E+02      -514.984               8.20E-11
               2        2.000     -0.88629768839508E+00       -24.117               5.91E-11
               3        0.000      0.80513512867208E+00        21.909
               4        0.000      0.13488896721797E+02       367.052
               5        0.000      0.12176758717074E+03      3313.465
 P
               1        4.000     -0.32819197278177E+00        -8.931               5.48E-11
               2        0.000      0.35173144540144E+00         9.571
               3        0.000      0.38636706113352E+01       105.136
 D
               1        0.000      0.10728304087486E+01        29.193
 F
               1        0.000      0.33533213831691E+01        91.249


 Partially Occupied:
               1 P                -0.32819197278177E+00
  
 HOMO :        2 S                -0.88629768839508E+00
 LUMO :        2 P                 0.35173144540144E+00
  


 Orbital Energies, all Irreps
 ========================================

 Irrep        no.  (spin)   Occup              E (au)                E (eV)
 ---------------------------------------------------------------------------
 S             1             2.00       -0.18925312066069E+02      -514.9839
 S             2             2.00       -0.88629768839508E+00       -24.1174
 P             1             4.00       -0.32819197278177E+00        -8.9306
 P             2             0.00        0.35173144540144E+00         9.5711
 S             3             0.00        0.80513512867208E+00        21.9088
 D             1             0.00        0.10728304087486E+01        29.1932
 F             1             0.00        0.33533213831691E+01        91.2485
 P             3             0.00        0.38636706113352E+01       105.1358
 S             4             0.00        0.13488896721797E+02       367.0516
 S             5             0.00        0.12176758717074E+03      3313.4646


 Scaled ZORA Orbital Energies of the Core Orbitals:
 ==================================================

 (Note that the atoms are grouped by atomtype, see the labels, and may hence NOT be in input order)

 AtomType  Orbital  Atom                   E (au)                        E (eV)
 --------  -------  ----           --------------------        ----------------



 =======================================
 M U L L I K E N   P O P U L A T I O N S
 =======================================
  
 The survey below gives for each atom:
 a) the total charge (Z minus electrons)
 b) the net spin polarization (nr of electrons spin-A minus spin-B)
 c) for each spin the atomic electron valence density (integrated) per L-value.

 Atom              Charge    Spin density          S         P         D         F
 ----              ------    ------------       ------    ------    ------    ------
 1 O               0.0000                       4.0000    4.0000    0.0000    0.0000

 Populations of individual BAS functions
 ----------------------------------------
 1 O            0.6021  1.4242 -0.0652  1.1760  0.8629  0.2407  0.2407  0.2407  0.7656  0.7656
                0.7656  0.3270  0.3270  0.3270  0.0000  0.0000  0.0000  0.0000  0.0000  0.0000
                0.0000  0.0000  0.0000  0.0000  0.0000  0.0000  0.0000  0.0000  0.0000  0.0000

 Gross Charges per Atom (Z minus electrons)
 ==========================================
             0.0000
 Net Total:  0.00000000


 Atom-Atom Population Matrix (off-diagonal elements not doubled)
 ===============================================================

     1 :     8.0000



 =============
 Dipole Moment  ***  (Debye)  ***
 =============
  
 Vector   :         0.00000000      0.00000000      0.00000000
 Magnitude:         0.00000000

 This molecular dipole moment is calculated with analytic integration



 =========================================
 Quadrupole Moment (Buckingham convention)  ***  (a.u.)  ***
 =========================================
  
      quad-xx        quad-xy        quad-xz        quad-yy        quad-yz        quad-zz
      0.00000000     0.00000000     0.00000000     0.00000000     0.00000000     0.00000000

 This molecular quadrupole moment is calculated with analytic integration



 ===============================================================================
 Electrostatic potential at the Nuclei due to valence electrons and other nuclei
 ===============================================================================
  
         Atom                  Potential
         ----                  ---------
     1)   O                  22.27577012
 
 
 ========================
 No memory problems found
 ========================
 
 Maximum number of active allocate calls:         481
 
 *******************************************************************************

                             A D F   E X I T
 NORMAL TERMINATION



 =================
 Timing Statistics
 =================
  
 Total Used :                     CPU=        0.24      System=        0.08     Elapsed=        0.32

 Calls  Section                     ( Mean, Percentage )
 ---------------------------------------------------------------------------------------------------
     3  ><      ................      0.00    0.00             0.00    0.00             0.00    0.39
     1  INIT    ................      0.01    3.28             0.00    0.00             0.01    2.09
     1  GEOMET  ................      0.01    3.28             0.05   60.00             0.06   17.83
     1  INPUTA  ................      0.00    1.64             0.00    0.00             0.00    0.72
     1  MAINSY  ................      0.01    3.28             0.00    0.00             0.01    2.91
     1  SYMFIT  ................      0.00    1.64             0.00    0.00             0.00    0.13
     1  CORORT  ................      0.00    0.00             0.00    0.00             0.00    0.15
     1  SYMORB  ................      0.00    0.00             0.00    0.00             0.00    0.57
     1  FITINT  ................      0.01    3.28             0.00    0.00             0.01    2.87
     1  CLSMAT  ................      0.00    0.00             0.00    5.00             0.00    0.17
     1  ORTHON  ................      0.00    0.00             0.00    0.00             0.00    0.69
     1  ETALOW  ................      0.00    0.00             0.00    0.00             0.00    0.42
     1  GENPT   ................      0.02    6.56             0.00    0.00             0.01    4.35
     1  PTBAS   ................      0.00    1.64             0.00    0.00             0.00    1.16
    13  FOCKY   ................      0.01   44.26             0.00   15.00             0.01   37.52
    13  FOCKTR  ................      0.00    1.64             0.00    0.00             0.00    1.65
    13  FOCKNM  ................      0.00    0.00             0.00    0.00             0.00    0.14
    13  SDIIS   ................      0.00    4.92             0.00    0.00             0.00    2.68
    13  EMERGE  ................      0.00   16.39             0.00   15.00             0.00   16.18
     1  COREPS  ................      0.00    1.64             0.00    0.00             0.01    1.68
[...]
 <Jan03-2010> <17:11:52>  GEOMETRY CONVERGED
 <Jan03-2010> <17:11:52>  Calculating Energy Terms for Final Geometry
  Coordinates in Geometry Cycle 6
    Atom         X           Y           Z   (Angstrom)
    1.O         0.000000    0.000000    0.185720
    2.H         0.760022    0.000000   -0.409525
    3.H        -0.760022    0.000000   -0.409525
 <Jan03-2010> <17:11:52>  >>>> CORORT
 <Jan03-2010> <17:11:52>  >>>> FITINT
 <Jan03-2010> <17:11:52>  >>>> CLSMAT
 <Jan03-2010> <17:11:52>  >>>> ORTHON
 <Jan03-2010> <17:11:52>  >>>> GENPT
 <Jan03-2010> <17:11:52>  Acc.Num.Int.=   4.000
 <Jan03-2010> <17:11:52>  Not using previous cell geometry for gradient smoothing in this step.
 <Jan03-2010> <17:11:52>  Reason: Orientation change
 <Jan03-2010> <17:11:52>  Block Length= 128
 <Jan03-2010> <17:11:52>  >>>> PTBAS
 <Jan03-2010> <17:11:52>  >>>> CYCLE
 <Jan03-2010> <17:11:52>    1
 <Jan03-2010> <17:11:52>    2  ErrMat   0.00000005  MaxEl  0.00000002
 <Jan03-2010> <17:11:52>  SCF converged
 <Jan03-2010> <17:11:52>    3  ErrMat   0.00000002  MaxEl  0.00000001
 <Jan03-2010> <17:11:52>  >>>> TOTEN
 <Jan03-2010> <17:11:53>  >>>> POPAN
 <Jan03-2010> <17:11:53>  >>>> DEBYE
 <Jan03-2010> <17:11:53>  >>>> AMETS
 <Jan03-2010> <17:11:53>  >>>> POPUL
 <Jan03-2010> <17:11:53>   Bond Energy LDA      -0.51271537 a.u.
 <Jan03-2010> <17:11:53>   Bond Energy LDA     -13.95169504 eV
 <Jan03-2010> <17:11:53>           + GGA-X      -0.47500904 a.u.
 <Jan03-2010> <17:11:53>           + GGA-X     -12.92565361 eV
 <Jan03-2010> <17:11:53>          + GGA-XC      -0.51413296 a.u.
 <Jan03-2010> <17:11:53>          + GGA-XC     -13.99026974 eV
 <Jan03-2010> <17:11:53>  NORMAL TERMINATION
 <Jan03-2010> <17:11:53>  END
 <Jan04-2010> <10:38:40>  DIRAC 2009.01  RunTime: Jan04-2010 10:38:40
 <Jan04-2010> <10:38:40>  NORMAL TERMINATION
 <Jan04-2010> <10:38:40>  END
 <Jan04-2010> <10:38:40>  ADF 2009.01  RunTime: Jan04-2010 10:38:40
 <Jan04-2010> <10:38:40>  Hydrogen (TZ2P)
 <Jan04-2010> <10:38:40>  RunType   : CREATE
 <Jan04-2010> <10:38:40>  Net Charge: 0 (Nuclei minus Electrons)
 <Jan04-2010> <10:38:40>  Symmetry  : ATOM
 <Jan04-2010> <10:38:40>  >>>> CORORT
 <Jan04-2010> <10:38:40>  >>>> FITINT
 <Jan04-2010> <10:38:40>  >>>> CLSMAT
 <Jan04-2010> <10:38:40>  >>>> ORTHON
 <Jan04-2010> <10:38:40>  >>>> GENPT
 <Jan04-2010> <10:38:40>  Acc.Num.Int.=  10.000
 <Jan04-2010> <10:38:40>  Block Length=  41
 <Jan04-2010> <10:38:40>  >>>> PTBAS
 <Jan04-2010> <10:38:40>  >>>> CYCLE
 <Jan04-2010> <10:38:40>    1
 <Jan04-2010> <10:38:40>    2  ErrMat   0.00333796  MaxEl -0.00317312
 <Jan04-2010> <10:38:40>    3  ErrMat   0.00120595  MaxEl  0.00120509
 <Jan04-2010> <10:38:41>    4  ErrMat   0.00004249  MaxEl  0.00003893
 <Jan04-2010> <10:38:41>    5  ErrMat   0.00000009  MaxEl -0.00000008
 <Jan04-2010> <10:38:41>    6  ErrMat   0.00000000  MaxEl  0.00000000
 <Jan04-2010> <10:38:41>  SCF converged
 <Jan04-2010> <10:38:41>    7  ErrMat   0.00000000  MaxEl  0.00000000
 <Jan04-2010> <10:38:41>   Solutions with partially occupied orbitals may not be
 <Jan04-2010> <10:38:41>   lowest in energy. You might consider lowering the
 <Jan04-2010> <10:38:41>   symmetry in the input and explicitly specifying integer
 <Jan04-2010> <10:38:41>   occupations. In that case always check that you obtain
 <Jan04-2010> <10:38:41>   an aufbau solution.
 <Jan04-2010> <10:38:41>  >>>> POPAN
 <Jan04-2010> <10:38:41>  >>>> DEBYE
 <Jan04-2010> <10:38:41>  NORMAL TERMINATION
 <Jan04-2010> <10:38:41>  END
 <Jan04-2010> <10:38:41>  DIRAC 2009.01  RunTime: Jan04-2010 10:38:41
 <Jan04-2010> <10:38:41>  NORMAL TERMINATION
 <Jan04-2010> <10:38:41>  END
 <Jan04-2010> <10:38:41>  ADF 2009.01  RunTime: Jan04-2010 10:38:41
 <Jan04-2010> <10:38:41>  Oxygen (TZ2P)
 <Jan04-2010> <10:38:41>  RunType   : CREATE
 <Jan04-2010> <10:38:41>  Net Charge: 0 (Nuclei minus Electrons)
 <Jan04-2010> <10:38:41>  Symmetry  : ATOM
 <Jan04-2010> <10:38:41>  >>>> CORORT
 <Jan04-2010> <10:38:41>  >>>> FITINT
 <Jan04-2010> <10:38:41>  >>>> CLSMAT
 <Jan04-2010> <10:38:41>  >>>> ORTHON
 <Jan04-2010> <10:38:41>  >>>> GENPT
 <Jan04-2010> <10:38:41>  Acc.Num.Int.=  10.000
 <Jan04-2010> <10:38:41>  Block Length=  60
 <Jan04-2010> <10:38:41>  >>>> PTBAS
 <Jan04-2010> <10:38:41>  >>>> CYCLE
 <Jan04-2010> <10:38:41>    1
 <Jan04-2010> <10:38:41>    2  ErrMat   8.20790272  MaxEl  5.22935311
 <Jan04-2010> <10:38:41>    3  ErrMat   3.47781689  MaxEl -2.40346879
 <Jan04-2010> <10:38:41>    4  ErrMat   2.86738059  MaxEl -1.92400352
 <Jan04-2010> <10:38:41>    5  ErrMat   1.97418661  MaxEl -1.30124952
 <Jan04-2010> <10:38:41>    6  ErrMat   0.21992427  MaxEl -0.11850312
 <Jan04-2010> <10:38:41>    7  ErrMat   0.05714202  MaxEl  0.03097153
 <Jan04-2010> <10:38:41>    8  ErrMat   0.00644559  MaxEl -0.00346399
 <Jan04-2010> <10:38:41>    9  ErrMat   0.00010308  MaxEl  0.00005034
 <Jan04-2010> <10:38:41>   10  ErrMat   0.00000468  MaxEl  0.00000267
 <Jan04-2010> <10:38:41>   11  ErrMat   0.00000003  MaxEl -0.00000001
 <Jan04-2010> <10:38:41>   12  ErrMat   0.00000000  MaxEl  0.00000000
 <Jan04-2010> <10:38:41>  SCF converged
 <Jan04-2010> <10:38:41>   13  ErrMat   0.00000000  MaxEl  0.00000000
 <Jan04-2010> <10:38:41>   Solutions with partially occupied orbitals may not be
 <Jan04-2010> <10:38:41>   lowest in energy. You might consider lowering the
 <Jan04-2010> <10:38:41>   symmetry in the input and explicitly specifying integer
 <Jan04-2010> <10:38:41>   occupations. In that case always check that you obtain
 <Jan04-2010> <10:38:41>   an aufbau solution.
 <Jan04-2010> <10:38:41>  >>>> POPAN
 <Jan04-2010> <10:38:41>  >>>> DEBYE
 <Jan04-2010> <10:38:41>  NORMAL TERMINATION
 <Jan04-2010> <10:38:41>  END
 <Jan04-2010> <10:38:41>  ADF 2009.01  RunTime: Jan04-2010 10:38:41
 <Jan04-2010> <10:38:41>  water calculation
 <Jan04-2010> <10:38:41>  RunType   : GEOMETRY OPTIMIZATION
 <Jan04-2010> <10:38:41>  Net Charge: 0 (Nuclei minus Electrons)
 <Jan04-2010> <10:38:41>  Symmetry  : C(2V)
 <Jan04-2010> <10:38:41>  >>>> FRAGM
  Coordinates in Geometry Cycle 1
    Atom         X           Y           Z   (Angstrom)
    1.O         0.000000    0.000000    0.000000
    2.H         0.895670    0.000000   -0.316665
    3.H        -0.895670    0.000000   -0.316665
 <Jan04-2010> <10:38:41>  >>>> CORORT
 <Jan04-2010> <10:38:41>  >>>> FITINT
 <Jan04-2010> <10:38:41>  >>>> CLSMAT
 <Jan04-2010> <10:38:41>  >>>> ORTHON
 <Jan04-2010> <10:38:41>  >>>> GENPT
 <Jan04-2010> <10:38:42>  Acc.Num.Int.=   4.000
 <Jan04-2010> <10:38:42>  Block Length= 127
 <Jan04-2010> <10:38:42>  >>>> PTBAS
 <Jan04-2010> <10:38:42>  >>>> CYCLE
 <Jan04-2010> <10:38:42>    1
 <Jan04-2010> <10:38:42>    2  ErrMat   0.83611890  MaxEl  0.37801096
 <Jan04-2010> <10:38:42>    3  ErrMat   0.38775618  MaxEl  0.18340473
 <Jan04-2010> <10:38:42>    4  ErrMat   0.08837475  MaxEl -0.04202355
 <Jan04-2010> <10:38:42>    5  ErrMat   0.00277797  MaxEl  0.00094322
 <Jan04-2010> <10:38:42>  SCF converged
 <Jan04-2010> <10:38:42>    6  ErrMat   0.00055169  MaxEl -0.00027980
 <Jan04-2010> <10:38:42>  >>>> TOTEN
 <Jan04-2010> <10:38:42>  >>>> POPAN
 <Jan04-2010> <10:38:42>  >>>> DEBYE
 <Jan04-2010> <10:38:42>  >>>> AMETS
 <Jan04-2010> <10:38:42>  >>>> ENGRAD
 <Jan04-2010> <10:38:42>  current energy                               -0.49071023 Hartree
 <Jan04-2010> <10:38:42>  abs of energy change                0.49071023     0.00100000    F
 <Jan04-2010> <10:38:42>  constrained gradient max            0.10996192     0.00100000    F
 <Jan04-2010> <10:38:42>  constrained gradient rms            0.04628110     0.00066667    F
 <Jan04-2010> <10:38:42>  gradient max                        0.10996192
 <Jan04-2010> <10:38:42>  gradient rms                        0.04628110
 <Jan04-2010> <10:38:42>  cart. step max                      0.07548604     0.01000000    F
 <Jan04-2010> <10:38:42>  cart. step rms                      0.03527848     0.00666667    F
  Coordinates in Geometry Cycle 2
    Atom         X           Y           Z   (Angstrom)
    1.O         0.000000    0.000000    0.075486
    2.H         0.859242    0.000000   -0.354408
    3.H        -0.859242    0.000000   -0.354408
 <Jan04-2010> <10:38:42>  >>>> CORORT
 <Jan04-2010> <10:38:42>  >>>> FITINT
 <Jan04-2010> <10:38:42>  >>>> CLSMAT
 <Jan04-2010> <10:38:42>  >>>> ORTHON
 <Jan04-2010> <10:38:42>  >>>> GENPT
 <Jan04-2010> <10:38:42>  Acc.Num.Int.=   4.000
 <Jan04-2010> <10:38:42>  Not using previous cell geometry for gradient smoothing in this step.
 <Jan04-2010> <10:38:42>  Reason: Orientation change
 <Jan04-2010> <10:38:42>  Block Length= 127
 <Jan04-2010> <10:38:42>  >>>> PTBAS
 <Jan04-2010> <10:38:42>  >>>> CYCLE
 <Jan04-2010> <10:38:42>    1
 <Jan04-2010> <10:38:43>    2  ErrMat   0.06720258  MaxEl  0.03260469
 <Jan04-2010> <10:38:43>    3  ErrMat   0.04661946  MaxEl  0.02248704
 <Jan04-2010> <10:38:43>    4  ErrMat   0.00105679  MaxEl  0.00037258
 <Jan04-2010> <10:38:43>    5  ErrMat   0.00126504  MaxEl  0.00055179
 <Jan04-2010> <10:38:43>    6  ErrMat   0.00003154  MaxEl -0.00001332
 <Jan04-2010> <10:38:43>  SCF converged
 <Jan04-2010> <10:38:43>    7  ErrMat   0.00000229  MaxEl  0.00000079
 <Jan04-2010> <10:38:43>  >>>> TOTEN
 <Jan04-2010> <10:38:43>  >>>> POPAN
 <Jan04-2010> <10:38:43>  >>>> DEBYE
 <Jan04-2010> <10:38:43>  >>>> AMETS
 <Jan04-2010> <10:38:43>  >>>> ENGRAD
 <Jan04-2010> <10:38:43>  current energy                               -0.50361176 Hartree
 <Jan04-2010> <10:38:43>  abs of energy change                0.01290153     0.00100000    F
 <Jan04-2010> <10:38:43>  constrained gradient max            0.07708121     0.00100000    F
 <Jan04-2010> <10:38:43>  constrained gradient rms            0.03510317     0.00066667    F
 <Jan04-2010> <10:38:43>  gradient max                        0.07708121
 <Jan04-2010> <10:38:43>  gradient rms                        0.03510317
 <Jan04-2010> <10:38:43>  cart. step max                      0.07226490     0.01000000    F
 <Jan04-2010> <10:38:43>  cart. step rms                      0.03527848     0.00666667    F
  Coordinates in Geometry Cycle 3
    Atom         X           Y           Z   (Angstrom)
    1.O         0.000000    0.000000    0.147751
    2.H         0.818207    0.000000   -0.390540
    3.H        -0.818207    0.000000   -0.390540
 <Jan04-2010> <10:38:43>  >>>> CORORT
 <Jan04-2010> <10:38:43>  >>>> FITINT
 <Jan04-2010> <10:38:43>  >>>> CLSMAT
 <Jan04-2010> <10:38:43>  >>>> ORTHON
 <Jan04-2010> <10:38:43>  >>>> GENPT
 <Jan04-2010> <10:38:43>  Acc.Num.Int.=   4.000
 <Jan04-2010> <10:38:43>  Block Length= 124
 <Jan04-2010> <10:38:43>  >>>> PTBAS
 <Jan04-2010> <10:38:43>  >>>> CYCLE
 <Jan04-2010> <10:38:43>    1
 <Jan04-2010> <10:38:43>    2  ErrMat   0.06049864  MaxEl  0.02827193
 <Jan04-2010> <10:38:43>    3  ErrMat   0.04197111  MaxEl  0.01940895
 <Jan04-2010> <10:38:43>    4  ErrMat   0.00940674  MaxEl  0.00408561
 <Jan04-2010> <10:38:44>    5  ErrMat   0.00156503  MaxEl -0.00064852
 <Jan04-2010> <10:38:44>    6  ErrMat   0.00001234  MaxEl  0.00000388
 <Jan04-2010> <10:38:44>  SCF converged
 <Jan04-2010> <10:38:44>    7  ErrMat   0.00000172  MaxEl  0.00000059
 <Jan04-2010> <10:38:44>  >>>> TOTEN
 <Jan04-2010> <10:38:44>  >>>> POPAN
 <Jan04-2010> <10:38:44>  >>>> DEBYE
 <Jan04-2010> <10:38:44>  >>>> AMETS
 <Jan04-2010> <10:38:44>  >>>> ENGRAD
 <Jan04-2010> <10:38:44>  current energy                               -0.51153598 Hartree
 <Jan04-2010> <10:38:44>  abs of energy change                0.00792422     0.00100000    F
 <Jan04-2010> <10:38:44>  constrained gradient max            0.04211260     0.00100000    F
 <Jan04-2010> <10:38:44>  constrained gradient rms            0.01996526     0.00066667    F
 <Jan04-2010> <10:38:44>  gradient max                        0.04211260
 <Jan04-2010> <10:38:44>  gradient rms                        0.01996526
 <Jan04-2010> <10:38:44>  cart. step max                      0.05232229     0.01000000    F
 <Jan04-2010> <10:38:44>  cart. step rms                      0.03103218     0.00666667    F
  Coordinates in Geometry Cycle 4
    Atom         X           Y           Z   (Angstrom)
    1.O         0.000000    0.000000    0.193879
    2.H         0.765884    0.000000   -0.413605
    3.H        -0.765884    0.000000   -0.413605
 <Jan04-2010> <10:38:44>  >>>> CORORT
 <Jan04-2010> <10:38:44>  >>>> FITINT
 <Jan04-2010> <10:38:44>  >>>> CLSMAT
 <Jan04-2010> <10:38:44>  >>>> ORTHON
 <Jan04-2010> <10:38:44>  >>>> GENPT
 <Jan04-2010> <10:38:44>  Acc.Num.Int.=   4.000
 <Jan04-2010> <10:38:44>  Not using previous cell geometry for gradient smoothing in this step.
 <Jan04-2010> <10:38:44>  Reason: Orientation change
 <Jan04-2010> <10:38:44>  Block Length= 128
 <Jan04-2010> <10:38:44>  >>>> PTBAS
 <Jan04-2010> <10:38:44>  >>>> CYCLE
 <Jan04-2010> <10:38:44>    1
 <Jan04-2010> <10:38:44>    2  ErrMat   0.03578661  MaxEl  0.01551725
 <Jan04-2010> <10:38:44>    3  ErrMat   0.02470476  MaxEl  0.01055751
 <Jan04-2010> <10:38:44>    4  ErrMat   0.01386797  MaxEl  0.00584015
 <Jan04-2010> <10:38:44>    5  ErrMat   0.00085990  MaxEl  0.00028281
 <Jan04-2010> <10:38:44>    6  ErrMat   0.00000874  MaxEl -0.00000300
 <Jan04-2010> <10:38:44>  SCF converged
 <Jan04-2010> <10:38:44>    7  ErrMat   0.00000119  MaxEl  0.00000045
 <Jan04-2010> <10:38:44>  >>>> TOTEN
 <Jan04-2010> <10:38:45>  >>>> POPAN
 <Jan04-2010> <10:38:45>  >>>> DEBYE
 <Jan04-2010> <10:38:45>  >>>> AMETS
 <Jan04-2010> <10:38:45>  >>>> ENGRAD
 <Jan04-2010> <10:38:45>  current energy                               -0.51386389 Hartree
 <Jan04-2010> <10:38:45>  abs of energy change                0.00232791     0.00100000    F
 <Jan04-2010> <10:38:45>  constrained gradient max            0.02696200     0.00100000    F
 <Jan04-2010> <10:38:45>  constrained gradient rms            0.01337355     0.00066667    F
 <Jan04-2010> <10:38:45>  gradient max                        0.02696200
 <Jan04-2010> <10:38:45>  gradient rms                        0.01337355
 <Jan04-2010> <10:38:45>  cart. step max                      0.00926006     0.01000000    T
 <Jan04-2010> <10:38:45>  cart. step rms                      0.00449029     0.00666667    T
  Coordinates in Geometry Cycle 5
    Atom         X           Y           Z   (Angstrom)
    1.O         0.000000    0.000000    0.184619
    2.H         0.760744    0.000000   -0.408975
    3.H        -0.760744    0.000000   -0.408975
 <Jan04-2010> <10:38:45>  >>>> CORORT
 <Jan04-2010> <10:38:45>  >>>> FITINT
 <Jan04-2010> <10:38:45>  >>>> CLSMAT
 <Jan04-2010> <10:38:45>  >>>> ORTHON
 <Jan04-2010> <10:38:45>  >>>> GENPT
 <Jan04-2010> <10:38:45>  Acc.Num.Int.=   4.000
 <Jan04-2010> <10:38:45>  Not using previous cell geometry for gradient smoothing in this step.
 <Jan04-2010> <10:38:45>  Reason: Orientation change
 <Jan04-2010> <10:38:45>  Block Length= 127
 <Jan04-2010> <10:38:45>  >>>> PTBAS
 <Jan04-2010> <10:38:45>  >>>> CYCLE
 <Jan04-2010> <10:38:45>    1
 <Jan04-2010> <10:38:45>    2  ErrMat   0.01117492  MaxEl -0.00474144
 <Jan04-2010> <10:38:45>    3  ErrMat   0.00759644  MaxEl -0.00327182
 <Jan04-2010> <10:38:45>    4  ErrMat   0.00384764  MaxEl  0.00176133
 <Jan04-2010> <10:38:45>    5  ErrMat   0.00027312  MaxEl -0.00012267
 <Jan04-2010> <10:38:45>    6  ErrMat   0.00000525  MaxEl -0.00000231
 <Jan04-2010> <10:38:45>  SCF converged
 <Jan04-2010> <10:38:45>    7  ErrMat   0.00000074  MaxEl  0.00000039
 <Jan04-2010> <10:38:45>  >>>> TOTEN
 <Jan04-2010> <10:38:45>  >>>> POPAN
 <Jan04-2010> <10:38:45>  >>>> DEBYE
 <Jan04-2010> <10:38:45>  >>>> AMETS
 <Jan04-2010> <10:38:45>  >>>> ENGRAD
 <Jan04-2010> <10:38:46>  current energy                               -0.51413145 Hartree
 <Jan04-2010> <10:38:46>  abs of energy change                0.00026755     0.00100000    T
 <Jan04-2010> <10:38:46>  constrained gradient max            0.00159540     0.00100000    F
 <Jan04-2010> <10:38:46>  constrained gradient rms            0.00065495     0.00066667    T
 <Jan04-2010> <10:38:46>  gradient max                        0.00159540
 <Jan04-2010> <10:38:46>  gradient rms                        0.00065495
 <Jan04-2010> <10:38:46>  cart. step max                      0.00110057     0.01000000    T
 <Jan04-2010> <10:38:46>  cart. step rms                      0.00056371     0.00666667    T
  Coordinates in Geometry Cycle 6
    Atom         X           Y           Z   (Angstrom)
    1.O         0.000000    0.000000    0.185720
    2.H         0.760022    0.000000   -0.409525
    3.H        -0.760022    0.000000   -0.409525
 <Jan04-2010> <10:38:46>  >>>> CORORT
 <Jan04-2010> <10:38:46>  >>>> FITINT
 <Jan04-2010> <10:38:46>  >>>> CLSMAT
 <Jan04-2010> <10:38:46>  >>>> ORTHON
 <Jan04-2010> <10:38:46>  >>>> GENPT
 <Jan04-2010> <10:38:46>  Acc.Num.Int.=   4.000
 <Jan04-2010> <10:38:46>  Not using previous cell geometry for gradient smoothing in this step.
 <Jan04-2010> <10:38:46>  Reason: Orientation change
 <Jan04-2010> <10:38:46>  Block Length= 128
 <Jan04-2010> <10:38:46>  >>>> PTBAS
 <Jan04-2010> <10:38:46>  >>>> CYCLE
 <Jan04-2010> <10:38:46>    1
 <Jan04-2010> <10:38:46>    2  ErrMat   0.00107112  MaxEl  0.00048028
 <Jan04-2010> <10:38:46>    3  ErrMat   0.00073940  MaxEl  0.00032963
 <Jan04-2010> <10:38:46>    4  ErrMat   0.00010502  MaxEl -0.00004696
 <Jan04-2010> <10:38:46>    5  ErrMat   0.00003731  MaxEl  0.00001637
 <Jan04-2010> <10:38:46>  SCF converged
 <Jan04-2010> <10:38:46>    6  ErrMat   0.00000013  MaxEl  0.00000004
 <Jan04-2010> <10:38:46>  >>>> TOTEN
 <Jan04-2010> <10:38:46>  >>>> POPAN
 <Jan04-2010> <10:38:46>  >>>> DEBYE
 <Jan04-2010> <10:38:46>  >>>> AMETS
 <Jan04-2010> <10:38:46>  >>>> ENGRAD
 <Jan04-2010> <10:38:46>  current energy                               -0.51413296 Hartree
 <Jan04-2010> <10:38:46>  abs of energy change                0.00000151     0.00100000    T
 <Jan04-2010> <10:38:46>  constrained gradient max            0.00001283     0.00100000    T
 <Jan04-2010> <10:38:46>  constrained gradient rms            0.00000609     0.00066667    T
 <Jan04-2010> <10:38:46>  gradient max                        0.00001283
 <Jan04-2010> <10:38:46>  gradient rms                        0.00000609
 <Jan04-2010> <10:38:46>  cart. step max                      0.00001821     0.01000000    T
 <Jan04-2010> <10:38:46>  cart. step rms                      0.00000976     0.00666667    T
 <Jan04-2010> <10:38:46>  GEOMETRY CONVERGED
 <Jan04-2010> <10:38:46>  Calculating Energy Terms for Final Geometry
  Coordinates in Geometry Cycle 6
    Atom         X           Y           Z   (Angstrom)
    1.O         0.000000    0.000000    0.185720
    2.H         0.760022    0.000000   -0.409525
    3.H        -0.760022    0.000000   -0.409525
 <Jan04-2010> <10:38:46>  >>>> CORORT
 <Jan04-2010> <10:38:46>  >>>> FITINT
 <Jan04-2010> <10:38:46>  >>>> CLSMAT
 <Jan04-2010> <10:38:46>  >>>> ORTHON
 <Jan04-2010> <10:38:46>  >>>> GENPT
 <Jan04-2010> <10:38:46>  Acc.Num.Int.=   4.000
 <Jan04-2010> <10:38:46>  Not using previous cell geometry for gradient smoothing in this step.
 <Jan04-2010> <10:38:46>  Reason: Orientation change
 <Jan04-2010> <10:38:47>  Block Length= 128
 <Jan04-2010> <10:38:47>  >>>> PTBAS
 <Jan04-2010> <10:38:47>  >>>> CYCLE
 <Jan04-2010> <10:38:47>    1
 <Jan04-2010> <10:38:47>    2  ErrMat   0.00000005  MaxEl  0.00000002
 <Jan04-2010> <10:38:47>  SCF converged
 <Jan04-2010> <10:38:47>    3  ErrMat   0.00000002  MaxEl  0.00000001
 <Jan04-2010> <10:38:47>  >>>> TOTEN
 <Jan04-2010> <10:38:47>  >>>> POPAN
 <Jan04-2010> <10:38:47>  >>>> DEBYE
 <Jan04-2010> <10:38:47>  >>>> AMETS
 <Jan04-2010> <10:38:47>  >>>> POPUL
 <Jan04-2010> <10:38:47>   Bond Energy LDA      -0.51271537 a.u.
 <Jan04-2010> <10:38:47>   Bond Energy LDA     -13.95169504 eV
 <Jan04-2010> <10:38:47>           + GGA-X      -0.47500904 a.u.
 <Jan04-2010> <10:38:47>           + GGA-X     -12.92565361 eV
 <Jan04-2010> <10:38:47>          + GGA-XC      -0.51413296 a.u.
 <Jan04-2010> <10:38:47>          + GGA-XC     -13.99026974 eV
 <Jan04-2010> <10:38:47>  NORMAL TERMINATION
 <Jan04-2010> <10:38:47>  END
NORMAL TERMINATION
