
 *******************************************************************************
 *                                                                             *
 *  -------------------------------------                                      *
 *   Amsterdam Density Functional  (ADF)         2009.01   September 29th, 2009*
 *  -------------------------------------                                      *
 *                                               Build 200909271755            *
 *                                                                             *
 *                                                                             *
 *                            =====================                            *
 *                            |                   |                            *
 *                            |     D I R A C     |                            *
 *                            |                   |                            *
 *                            =====================                            *
 *                                                                             *
 *                                                                             *
 *   Online information and documentation:  http://www.scm.com                 *
 *   E-mail:  support@scm.com   info@scm.com                                   *
 *                                                                             *
 *   Scientific publications using ADF results must be properly referenced     *
 *   See the User Manuals (or the web site) for recommended citations          *
 *   The terms and conditions of the End User License Agreement apply to       *
 *   the use of ADF, http://www.scm.com/Sales/LicAgreement.html                *
 *                                                                             *
 ************************  pentium_linux_ifc / hpmpi  **************************
 
 DIRAC 2009.01  RunTime: Dec29-2009 16:19:33

 Temporary files are created in /home/kit/Documents/calcs_local/oncmes/kid_0.2jNBqU

1
 HYDROGEN ATOM RELATIVISTIC, Point Nuc, A and c from libtc   
 N J RN H ZN XION ANUC CLIGHT
 5000    1100.00000000197.36710137  1.00000000  0.00000000    1.007825  0.1370360E+03
  PH   PHI     EPS        DEL        DELRVR
  0.30  0.30     2500.00  0.00001000  0.00001000
 IDIRC  NC1  NDEBU NPRIN  IPUN IRCOR IWCOR
   1   300     0     0     0     0     0
   XALPHA      XLATTER      RNUC
  0.70000000  0.00000000  0.00000000 Point Charge
   XN   XL   XJ      XE          XZ      XDELL
  1.0  0.0  0.5      -1.000       1.000     0.00000
 ICORP=  0  NPCL=  0  DEMP=0.00  PEPS=0.000000
 R(1)=  0.1000000E-08 D=  0.1005080E+01 RNUC=  0.0000000E+00
 converged at cycle   32  DENSITY AVERAGING    0.2400
  MAXIMUM ERROR IN R.V(R) IS   0.79874357E-05
 Q,EY,EV,EZ,ESUM,ETOT,RHO  0.100000E+01 -0.266614E+00 -0.619969E+00 -0.910779E+00 -0.203940E+00 -0.415998E+00  0.337036E-17


 DIRAC CALCULATION
1                    HYDROGEN ATOM RELATIVISTIC, Point Nuc, A and c from libtc


 EXCHANGE COEFFICIENT=  0.7000000           TAIL CORRECTION=  0.           NUCLEAR RADIUS=  0.000E+00
0                       ORBITAL    N    L    J     ELECTRONS     EIGENVALUE                DELTA OF EIGENV.

                          1S1/2  1.0  0.0  0.5     1.000       -0.2039397E+00                 0.2720093E-06


                                        NUCLEAR CHARGE=    1.000000
                            INTEGRAL OF CHARGE DENSITY=    1.000000
                           SUM OF THE ORBITAL ENERGIES=     -0.2039
                                          TOTAL ENERGY=     -0.4160
                                        KINETIC ENERGY=      0.4160
                             NUCLEAR ATTRACTION ENERGY=     -0.9108
                             ELECTRON REPULSION ENERGY=      0.2787
                                       EXCHANGE ENERGY=     -0.2000

 *******************************************************************************

                             D I R A C   E X I T
 NORMAL TERMINATION



 =================
 Timing Statistics
 =================
  
 Total Used :                     CPU=        0.16      System=        0.07     Elapsed=        0.31

 Calls  Section                     ( Mean, Percentage )
 ---------------------------------------------------------------------------------------------------
     2  ><      ................      0.00    0.00             0.00    0.00             0.00    0.01
     1  EXIT PROCEDURE .........      0.16  100.00             0.07  100.00             0.31   99.99


 Currently Open Files (EXIT00)
 ====================

 Unit    Access Format  Status   Type       Ident (file)
 -------------------------------------------------------
   3      SEQ    FORM   TRANSP  NORMAL      LOGFILE
                                          ( logfile )


 Buffered I/O statistics
 =======================
 Memory available:                     67108864
 Number of records fitting in memory:     16225
 Input : 100.0% of                            0  *4k bytes
 Output: 100.0% of                            0  *4k bytes
 Records from serial files evicted:           0
                    others evicted:           0
 Hash table lookups:          0 with          0 conflicts (100.00%)
NORMAL TERMINATION
(INPUT FILE)
Create H   file=/home/kit/adf/adf2009.01/atomicdata/ZORA/TZ2P/H
XC
  GGA OLYP
End
relativistic ZORA
Corepotentials t12.rel
End Input

 *******************************************************************************
 *                                                                             *
 *  -------------------------------------                                      *
 *   Amsterdam Density Functional  (ADF)         2009.01   September 29th, 2009*
 *  -------------------------------------                                      *
 *                                               Build 200909271755            *
 *                                                                             *
 *                                                                             *
 *                              =================                              *
 *                              |               |                              *
 *                              |     A D F     |                              *
 *                              |               |                              *
 *                              =================                              *
 *                                                                             *
 *                                                                             *
 *   Online information and documentation:  http://www.scm.com                 *
 *   E-mail:  support@scm.com   info@scm.com                                   *
 *                                                                             *
 *   Scientific publications using ADF results must be properly referenced     *
 *   See the User Manuals (or the web site) for recommended citations          *
 *   The terms and conditions of the End User License Agreement apply to       *
 *   the use of ADF, http://www.scm.com/Sales/LicAgreement.html                *
 *                                                                             *
 ************************  pentium_linux_ifc / hpmpi  **************************
 
 ADF 2009.01  RunTime: Dec29-2009 16:19:34

 Temporary files are created in /home/kit/Documents/calcs_local/oncmes/kid_0.m4V0Uf

 Hydrogen (TZ2P)



 ===========================
 A T T A C H E D   F I L E S
 ===========================
  
 CREATE - Data File:    /home/kit/adf/adf2009.01/atomicdata/ZORA/TZ2P/H
                        Hydrogen (TZ2P)
 Core Potentials:
         file : t12.rel



 ===============================
 M O D E L   P A R A M E T E R S
 ===============================
  
 DENSITY FUNCTIONAL POTENTIAL (scf)
    LDA:                               Exchange only                           == Not Default ==
    Gradient Corrections:              OPTX LYP                                == Not Default ==

 SPIN  (restricted / unrestr.)
    Molecule:                          Restricted                               

 OTHER ASPECTS
    Relativistic Corrections:          scalar (ZORA,SAPA)                       *** SPECIAL ***

    Nuclear Charge Density Model:      Point Charge Nuclei                                                                                                                                                                                     
    Core Treatment:                    Frozen Orbital(s)                        

    Electric Field:                    ---                                      

    Hyperfine or Zeeman Interaction:   ---                                      



 =====================================
 S Y M M E T R Y ,   E L E C T R O N S
 =====================================
  
 Symmetry: ATOM

 Irreducible Representations, including subspecies
 -------------------------------------------------
 S
 P:x  P:y  P:z
 D:z2  D:x2-y2  D:xy  D:xz  D:yz
 F:z3  F:z  F:xyz  F:z2x  F:z2y  F:x  F:y


 Configuration of Valence Electrons
 ==================================

          Occupation Numbers
          -------------------------------------------------
 S        1
 P        0
 D        0
 F        0
          -------------------------------------------------

 Total:   1

 Net Charge: 0 (Nuclei minus Electrons)

 Preset values for MO occupations will be applied through SCF cycle no. 1000000
 Thereafter, the program will assign electrons to MOs that are spatially
 similar to the occupied MOs in a "reference" cycle ("KeepOrbitals").
 The reference cycle is always the PREVIOUS cycle: it will evolve with
 the SCF procedure.



 ================================
 (Slater-type)  F U N C T I O N S  ***  (Basis and Fit)  ***
 ================================
  

 Atom Type    1  (H)
 ==============

 Valence Basis Sets:   5
 -----------------------
   1 S    0.690000
   1 S    0.920000
   1 S    1.580000
   2 P    1.250000
   3 D    2.500000

 Charge Fitting Sets (for the computation of the Coulomb Potential):  11
 -----------------------------------------------------------------------
   1 S    3.160000
   1 S    2.090000
   1 S    1.380000
   2 S    1.500000
   2 P    4.000000
   2 P    2.650000
   2 P    1.750000
   3 D    4.000000
   3 D    2.500000
   4 F    3.000000
   5 G    4.000000


 BAS: List of all Elementary Cartesian Basis Functions
 =====================================================

 The numbering in the list below (to the right of the function characteristics) is referred
 to in print-outs of MO eigenvectors and Mulliken populations in the BAS representation
 (as contrasted to the SFO representation).

 Notes:
 1. The functions are characterized by a polynomial prefactor (powers of x,y,z and r) and
    an exponential decay factor alpha.
 2. Since the basis sets are specific for an atom TYPE, the individual functions occur on
    all atoms of that type.
 3. The word 'Core' in the left margin signals that it is a Core Function (CF) : not a
    degree of freedom in the valence set, but only used to ensure orthogonalization of
    the other valence basis functions on the frozen Core Orbitals.


 (power of) X  Y  Z  R     Alpha  on Atom
            ==========     =====     ==========

 H                                    1
                                  ---------------------------------------------------------------------------
            0  0  0  0     0.690      1
            0  0  0  0     0.920      2
            0  0  0  0     1.580      3
            1  0  0  0     1.250      4
            0  1  0  0     1.250      5
            0  0  1  0     1.250      6
            2  0  0  0     2.500      7
            1  1  0  0     2.500      8
            1  0  1  0     2.500      9
            0  2  0  0     2.500     10
            0  1  1  0     2.500     11
            0  0  2  0     2.500     12

 Total number of charge fitting functions (nprimf)        50
 Total number of Cartesian basis functions (naos)         12
 Total number of Cartesian core functions  (ncos)          0



 BAS: List of all Elementary Cartesian Basis Functions
 =====================================================

 The numbering in the list below (to the right of the function characteristics) is referred
 to in print-outs of MO eigenvectors and Mulliken populations in the BAS representation
 (as contrasted to the SFO representation).

 Notes:
 1. The functions are characterized by a polynomial prefactor (powers of x,y,z and r) and
    an exponential decay factor alpha.
 2. Since the basis sets are specific for an atom TYPE, the individual functions occur on
    all atoms of that type.
 3. The word 'Core' in the left margin signals that it is a Core Function (CF) : not a
    degree of freedom in the valence set, but only used to ensure orthogonalization of
    the other valence basis functions on the frozen Core Orbitals.


 (power of) X  Y  Z  R     Alpha  on Atom
            ==========     =====     ==========

 H                                    1
                                  ---------------------------------------------------------------------------
            0  0  0  0     0.690      1
            0  0  0  0     0.920      2
            0  0  0  0     1.580      3
            1  0  0  0     1.250      4
            0  1  0  0     1.250      5
            0  0  1  0     1.250      6
            2  0  0  0     2.500      7
            1  1  0  0     2.500      8
            1  0  1  0     2.500      9
            0  2  0  0     2.500     10
            0  1  1  0     2.500     11
            0  0  2  0     2.500     12
1
 ***************************************************************************************************



                                              ***********************
                                              *  T E C H N I C A L  *
                                              ***********************
  



 =============================================================
 P A R A L L E L I Z A T I O N  and  V E C T O R I Z A T I O N
 =============================================================
  
 Nr of parallel processes:                                1
 Maximum vector length in NumInt loops:                 128



 ===============
 I O  vs.  C P U  ***  (store numerical data on disk or recalculate)  ***
 ===============
  
 Basis functions:   recalculate when needed
 Fit functions:     recalculate when needed

 IO buffersize (Mb):                                     64.000000



 =====================
 S C F   U P D A T E S
 =====================
  
 Max. nr. of cycles:                               100
 Convergence criterion:                              0.0000000100
   secondary criterion:                              0.0000000100

 Mix parameter (when DIIS does not apply):           0.2000000000
 Special mix parameter for the first cycle:          1.0000000000


 DIIS (Direct Inversion in Iteration Space)
    Replace damping when SCF Error is below:         0.5000000000
    Apply anyway after SCF cycle:
                                                     5
    (Max.) nr. of expansion vectors:                10

    Upperbound on expansion coefficients:            5.0000000000
    (when exceeded, IterationSpace is re-built)
    2nd Upperbound on coefficients:                 25.0000000000
    (when exceeded, simple damping will be used)
 Automatic ElectronSmearing (in case of problematic SCF convergence) disabled



 =================
 P R E C I S I O N  ***  (General: NumInt, NeglectFunctionTails, ...)  ***
 =================
  

 NumInt:           Target precision:                10.0000000000
 -------           Initial precision:               10.0000000000
                   Min. precision (optimization):   10.0000000000

 Neglect Functions:          Basis functions:        0.1000000000E-11
 ------------------          Fit functions:          0.1000000000E-11



 ===========================
 L I N E A R   S C A L I N G
 ===========================
  

 Cut-off radii density fit:                        0.1000000000E-13
 Overlap cut-off criterion AO matrix elements:     0.1000000000E-11
 Cut-offs for Coulomb potential and fitted density:0.1000000000E-13
 Cut-off criterion for Coulomb multipole terms:    0.1000000000E-13
 Progressive Convergence parameter:                 0.000000000    
1
 ***************************************************************************************************



                                            ***************************
                                            *  C O M P U T A T I O N  *
                                            ***************************
  

 Number of elements of the density matrix on this node (used, total):        78        78



 ====================================================
 Numerical Integration : Voronoi Polyhedra (Te Velde)  ***  (parameters, tests)  ***
 ====================================================
  
 General Accuracy Parameter :                         10.00

 Symmetry used in the points section:  ATOM  


 Summary of the Symmetry Unique Points:
 --------------------------------------
    Nr. of used Symmetry Operators                     1

    Points in the Atomic Spheres                      41
    Points in the Atomic Polyhedra                     0
    Points in the Outer Region                         0
    ----------------------------------------------------
    Total                                             41

    Sum of Weights                                 33854.777883

 Total nr. of points:         41
 Nr. of blocks:                1
 Block length:                41
 Nr. of dummy points:          0


 Test of Precision of the Numerical Integration Grid
 ===================================================

 Integral of the Total Core Density:                   0.00000000000000



 =====
 S C F
 =====
  

 CYCLE    1
 orbitals (Q,E):
 ---------------
 S :1...3            ( 1.00    -0.2447)  ( 0.00     0.0749)  ( 0.00     1.5153)
 P :1...1            ( 0.00     0.4046)
 D :1...1            ( 0.00     2.5587)

 CYCLE    2
 d-Pmat  mean:  0.83E-02
 imax=      2: -0.73E-01
 orbitals (Q,E):
 ---------------
 S :1...2            ( 1.00    -0.2367)  ( 0.00     0.0773)
 P :1...1            ( 0.00     0.4114)
 D :1...1            ( 0.00     2.5681)

 CYCLE    3
 d-Pmat  mean:  0.16E-02
 imax=      2:  0.14E-01
 orbitals (Q,E):
 ---------------
 S :1...2            ( 1.00    -0.2384)  ( 0.00     0.0767)
 P :1...1            ( 0.00     0.4100)
 D :1...1            ( 0.00     2.5663)

 CYCLE    4
 d-Pmat  mean:  0.22E-04
 imax=      2:  0.17E-03
 orbitals (Q,E):
 ---------------
 S :1...2            ( 1.00    -0.2384)  ( 0.00     0.0767)
 P :1...1            ( 0.00     0.4100)
 D :1...1            ( 0.00     2.5663)

 CYCLE    5
 d-Pmat  mean:  0.97E-07
 imax=      2:  0.86E-06
 orbitals (Q,E):
 ---------------
 S :1...2            ( 1.00    -0.2384)  ( 0.00     0.0767)
 P :1...1            ( 0.00     0.4100)
 D :1...1            ( 0.00     2.5663)

 CYCLE    6
 d-Pmat  mean:  0.14E-10
 imax=      2:  0.13E-09
 orbitals (Q,E):
 ---------------
 S :1...2            ( 1.00    -0.2384)  ( 0.00     0.0767)
 P :1...1            ( 0.00     0.4100)
 D :1...1            ( 0.00     2.5663)

 SCF CONVERGED

 CYCLE    7
1
 ***************************************************************************************************



                                                *******************
                                                *  R E S U L T S  *
                                                *******************
  
 *** Setting up for NEW gradients in focky
 *** Using FIT density in focky

 Scaled ZORA Orbital Energies, per Irrep and Spin:
 =================================================
                        Occup              E (au)              E (eV)       Diff (eV) with prev. cycle
                        -----      --------------------        ------       --------------------------
 S
               1        1.000     -0.23844080979135E+00        -6.488              -2.87E-10
               2        0.000      0.76691652239381E-01         2.087
               3        0.000      0.15203523046255E+01        41.371
 P
               1        0.000      0.41002727912597E+00        11.157
 D
               1        0.000      0.25662943922396E+01        69.832


 Partially Occupied:
               1 S                -0.23844080979135E+00
  
 LUMO :        2 S                 0.76691652239381E-01
  


 Orbital Energies, all Irreps
 ========================================

 Irrep        no.  (spin)   Occup              E (au)                E (eV)
 ---------------------------------------------------------------------------
 S             1             1.00       -0.23844080979135E+00        -6.4883
 S             2             0.00        0.76691652239381E-01         2.0869
 P             1             0.00        0.41002727912597E+00        11.1574
 S             3             0.00        0.15203523046255E+01        41.3709
 D             1             0.00        0.25662943922396E+01        69.8324


 Scaled ZORA Orbital Energies of the Core Orbitals:
 ==================================================

 (Note that the atoms are grouped by atomtype, see the labels, and may hence NOT be in input order)

 AtomType  Orbital  Atom                   E (au)                        E (eV)
 --------  -------  ----           --------------------        ----------------



 =======================================
 M U L L I K E N   P O P U L A T I O N S
 =======================================
  
 The survey below gives for each atom:
 a) the total charge (Z minus electrons)
 b) the net spin polarization (nr of electrons spin-A minus spin-B)
 c) for each spin the atomic electron valence density (integrated) per L-value.

 Atom              Charge    Spin density          S         P         D         F
 ----              ------    ------------       ------    ------    ------    ------
 1 H               0.0000                       1.0000    0.0000    0.0000    0.0000

 Populations of individual BAS functions
 ----------------------------------------
 1 H            0.2415  0.6275  0.1309  0.0000  0.0000  0.0000  0.0000  0.0000  0.0000  0.0000
                0.0000  0.0000

 Gross Charges per Atom (Z minus electrons)
 ==========================================
             0.0000
 Net Total:  0.00000000


 Atom-Atom Population Matrix (off-diagonal elements not doubled)
 ===============================================================

     1 :     1.0000



 =============
 Dipole Moment  ***  (Debye)  ***
 =============
  
 Vector   :         0.00000000      0.00000000      0.00000000
 Magnitude:         0.00000000

 This molecular dipole moment is calculated with analytic integration



 =========================================
 Quadrupole Moment (Buckingham convention)  ***  (a.u.)  ***
 =========================================
  
      quad-xx        quad-xy        quad-xz        quad-yy        quad-yz        quad-zz
      0.00000000     0.00000000     0.00000000     0.00000000     0.00000000     0.00000000

 This molecular quadrupole moment is calculated with analytic integration



 ===============================================================================
 Electrostatic potential at the Nuclei due to valence electrons and other nuclei
 ===============================================================================
  
         Atom                  Potential
         ----                  ---------
     1)   H                   0.95066312
 
 
 ========================
 No memory problems found
 ========================
 
 Maximum number of active allocate calls:         383
 
 *******************************************************************************

                             A D F   E X I T
 NORMAL TERMINATION



 =================
 Timing Statistics
 =================
  
 Total Used :                     CPU=        0.15      System=        0.07     Elapsed=        0.25

 Calls  Section                     ( Mean, Percentage )
 ---------------------------------------------------------------------------------------------------
     3  ><      ................      0.00    0.00             0.00    0.00             0.00    3.35
     1  INIT    ................      0.00    2.70             0.00    0.00             0.01    2.85
     1  GEOMET  ................      0.01    8.11             0.05   70.59             0.06   25.97
     1  INPUTA  ................      0.00    0.00             0.00    5.88             0.00    1.93
     1  MAINSY  ................      0.01    5.41             0.00    5.88             0.01    4.60
     1  SYMFIT  ................      0.00    0.00             0.00    0.00             0.00    0.19
     1  CORORT  ................      0.00    0.00             0.00    0.00             0.00    0.24
     1  SYMORB  ................      0.00    2.70             0.00    0.00             0.00    0.50
     1  FITINT  ................      0.01    5.41             0.00    0.00             0.01    2.84
     1  CLSMAT  ................      0.00    0.00             0.00    0.00             0.00    0.26
     1  ORTHON  ................      0.00    0.00             0.00    0.00             0.00    0.71
     1  ETALOW  ................      0.00    0.00             0.00    0.00             0.00    0.35
     1  GENPT   ................      0.00    2.70             0.00    5.88             0.01    4.38
     1  PTBAS   ................      0.00    2.70             0.00    0.00             0.00    1.41
     7  FOCKY   ................      0.01   45.95             0.00    5.88             0.01   29.00
     7  FOCKTR  ................      0.00    2.70             0.00    0.00             0.00    1.01
     7  FOCKNM  ................      0.00    0.00             0.00    0.00             0.00    0.10
     7  SDIIS   ................      0.00    2.70             0.00    0.00             0.00    4.23
     7  EMERGE  ................      0.00    8.11             0.00    0.00             0.00    8.50
     1  COREPS  ................      0.01    5.41             0.00    0.00             0.00    1.81
     1  POPAN   ................      0.00    0.00             0.00    0.00             0.00    1.37
     1  DEBYE   ................      0.00    2.70             0.00    0.00             0.00    0.31
     1  QMPOT   ................      0.00    2.70             0.00    0.00             0.00    1.71
     1  EXIT PROCEDURE .........      0.00    0.00             0.00    5.88             0.01    2.36


 Currently Open Files (EXIT00)
 ====================

 Unit    Access Format  Status   Type       Ident (file)
 -------------------------------------------------------
   3      SEQ    FORM   TRANSP  NORMAL      LOGFILE
                                          ( logfile )


 Buffered I/O statistics
 =======================
 Memory available:                     67108864
 Number of records fitting in memory:     16225
 Input :   1.4% of                         3245  *4k bytes
 Output:  11.2% of                         1744  *4k bytes
 Records from serial files evicted:           0
                    others evicted:           0
 Hash table lookups:      13609 with          0 conflicts (  0.00%)

 ***************************************************************************************************
 (LOGFILE)
 <Dec29-2009> <13:17:08>  DIRAC 2009.01  RunTime: Dec29-2009 13:17:08
 <Dec29-2009> <13:17:08>  NORMAL TERMINATION
 <Dec29-2009> <13:17:09>  END
 <Dec29-2009> <13:17:09>  ADF 2009.01  RunTime: Dec29-2009 13:17:09
 <Dec29-2009> <13:17:09>  Hydrogen (TZ2P)
 <Dec29-2009> <13:17:09>  RunType   : CREATE
 <Dec29-2009> <13:17:09>  Net Charge: 0 (Nuclei minus Electrons)
 <Dec29-2009> <13:17:09>  Symmetry  : ATOM
 <Dec29-2009> <13:17:09>  >>>> CORORT
 <Dec29-2009> <13:17:09>  >>>> FITINT
 <Dec29-2009> <13:17:09>  >>>> CLSMAT
 <Dec29-2009> <13:17:09>  >>>> ORTHON
 <Dec29-2009> <13:17:09>  >>>> GENPT
 <Dec29-2009> <13:17:09>  Acc.Num.Int.=  10.000
 <Dec29-2009> <13:17:09>  Block Length=  41
 <Dec29-2009> <13:17:09>  >>>> PTBAS
 <Dec29-2009> <13:17:09>  >>>> CYCLE
 <Dec29-2009> <13:17:09>    1
 <Dec29-2009> <13:17:09>    2  ErrMat   0.00333796  MaxEl -0.00317312
 <Dec29-2009> <13:17:09>    3  ErrMat   0.00120595  MaxEl  0.00120509
 <Dec29-2009> <13:17:09>    4  ErrMat   0.00004249  MaxEl  0.00003893
 <Dec29-2009> <13:17:09>    5  ErrMat   0.00000009  MaxEl -0.00000008
 <Dec29-2009> <13:17:09>    6  ErrMat   0.00000000  MaxEl  0.00000000
 <Dec29-2009> <13:17:09>  SCF converged
 <Dec29-2009> <13:17:09>    7  ErrMat   0.00000000  MaxEl  0.00000000
 <Dec29-2009> <13:17:09>   Solutions with partially occupied orbitals may not be
 <Dec29-2009> <13:17:09>   lowest in energy. You might consider lowering the
 <Dec29-2009> <13:17:09>   symmetry in the input and explicitly specifying integer
 <Dec29-2009> <13:17:09>   occupations. In that case always check that you obtain
 <Dec29-2009> <13:17:09>   an aufbau solution.
 <Dec29-2009> <13:17:09>  >>>> POPAN
 <Dec29-2009> <13:17:09>  >>>> DEBYE
 <Dec29-2009> <13:17:09>  NORMAL TERMINATION
 <Dec29-2009> <13:17:09>  END
 <Dec29-2009> <13:17:09>  DIRAC 2009.01  RunTime: Dec29-2009 13:17:09
 <Dec29-2009> <13:17:09>  NORMAL TERMINATION
 <Dec29-2009> <13:17:09>  END
 <Dec29-2009> <13:17:09>  ADF 2009.01  RunTime: Dec29-2009 13:17:09
 <Dec29-2009> <13:17:09>  Nitrogen (TZ2P, 1s frozen)
 <Dec29-2009> <13:17:09>  RunType   : CREATE
 <Dec29-2009> <13:17:09>  Net Charge: 0 (Nuclei minus Electrons)
 <Dec29-2009> <13:17:09>  Symmetry  : ATOM
 <Dec29-2009> <13:17:09>  >>>> CORORT
 <Dec29-2009> <13:17:09>  >>>> FITINT
 <Dec29-2009> <13:17:09>  >>>> CLSMAT
 <Dec29-2009> <13:17:09>  >>>> ORTHON
 <Dec29-2009> <13:17:09>  >>>> GENPT
 <Dec29-2009> <13:17:09>  Acc.Num.Int.=  10.000
 <Dec29-2009> <13:17:09>  Block Length=  52
 <Dec29-2009> <13:17:09>  >>>> PTBAS
 <Dec29-2009> <13:17:09>  >>>> CYCLE
 <Dec29-2009> <13:17:09>    1
 <Dec29-2009> <13:17:09>    2  ErrMat   0.01039358  MaxEl -0.00666423
 <Dec29-2009> <13:17:09>    3  ErrMat   0.01139170  MaxEl  0.00777523
 <Dec29-2009> <13:17:09>    4  ErrMat   0.00044219  MaxEl  0.00028966
 <Dec29-2009> <13:17:09>    5  ErrMat   0.00000524  MaxEl  0.00000345
 <Dec29-2009> <13:17:09>    6  ErrMat   0.00000000  MaxEl  0.00000000
 <Dec29-2009> <13:17:09>  SCF converged
 <Dec29-2009> <13:17:09>    7  ErrMat   0.00000000  MaxEl  0.00000000
 <Dec29-2009> <13:17:09>   Solutions with partially occupied orbitals may not be
 <Dec29-2009> <13:17:09>   lowest in energy. You might consider lowering the
 <Dec29-2009> <13:17:09>   symmetry in the input and explicitly specifying integer
 <Dec29-2009> <13:17:09>   occupations. In that case always check that you obtain
 <Dec29-2009> <13:17:09>   an aufbau solution.
 <Dec29-2009> <13:17:10>  >>>> POPAN
 <Dec29-2009> <13:17:10>  >>>> DEBYE
 <Dec29-2009> <13:17:10>  NORMAL TERMINATION
 <Dec29-2009> <13:17:10>  END
 <Dec29-2009> <13:17:10>  DIRAC 2009.01  RunTime: Dec29-2009 13:17:10
 <Dec29-2009> <13:17:10>  NORMAL TERMINATION
 <Dec29-2009> <13:17:10>  END
 <Dec29-2009> <13:17:10>  ADF 2009.01  RunTime: Dec29-2009 13:17:10
 <Dec29-2009> <13:17:10>  Carbon (TZ2P, 1s frozen)
 <Dec29-2009> <13:17:10>  RunType   : CREATE
 <Dec29-2009> <13:17:10>  Net Charge: 0 (Nuclei minus Electrons)
 <Dec29-2009> <13:17:10>  Symmetry  : ATOM
 <Dec29-2009> <13:17:10>  >>>> CORORT
 <Dec29-2009> <13:17:10>  >>>> FITINT
 <Dec29-2009> <13:17:10>  >>>> CLSMAT
 <Dec29-2009> <13:17:10>  >>>> ORTHON
 <Dec29-2009> <13:17:10>  >>>> GENPT
 <Dec29-2009> <13:17:10>  Acc.Num.Int.=  10.000
 <Dec29-2009> <13:17:10>  Block Length=  50
 <Dec29-2009> <13:17:10>  >>>> PTBAS
 <Dec29-2009> <13:17:10>  >>>> CYCLE
 <Dec29-2009> <13:17:10>    1
 <Dec29-2009> <13:17:10>    2  ErrMat   0.00190819  MaxEl -0.00141656
 <Dec29-2009> <13:17:10>    3  ErrMat   0.00192213  MaxEl  0.00153388
 <Dec29-2009> <13:17:10>    4  ErrMat   0.00014114  MaxEl  0.00010755
 <Dec29-2009> <13:17:10>    5  ErrMat   0.00000591  MaxEl -0.00000458
 <Dec29-2009> <13:17:10>    6  ErrMat   0.00000001  MaxEl  0.00000001
 <Dec29-2009> <13:17:10>  SCF converged
 <Dec29-2009> <13:17:10>    7  ErrMat   0.00000000  MaxEl  0.00000000
 <Dec29-2009> <13:17:10>   Solutions with partially occupied orbitals may not be
 <Dec29-2009> <13:17:10>   lowest in energy. You might consider lowering the
 <Dec29-2009> <13:17:10>   symmetry in the input and explicitly specifying integer
 <Dec29-2009> <13:17:10>   occupations. In that case always check that you obtain
 <Dec29-2009> <13:17:10>   an aufbau solution.
 <Dec29-2009> <13:17:10>  >>>> POPAN
 <Dec29-2009> <13:17:10>  >>>> DEBYE
 <Dec29-2009> <13:17:10>  NORMAL TERMINATION
 <Dec29-2009> <13:17:10>  END
 <Dec29-2009> <13:17:10>  DIRAC 2009.01  RunTime: Dec29-2009 13:17:10
 <Dec29-2009> <13:17:11>  NORMAL TERMINATION
 <Dec29-2009> <13:17:11>  END
 <Dec29-2009> <13:17:11>  ADF 2009.01  RunTime: Dec29-2009 13:17:11
 <Dec29-2009> <13:17:11>  Oxygen (TZ2P, 1s frozen)
 <Dec29-2009> <13:17:11>  RunType   : CREATE
 <Dec29-2009> <13:17:11>  Net Charge: 0 (Nuclei minus Electrons)
 <Dec29-2009> <13:17:11>  Symmetry  : ATOM
 <Dec29-2009> <13:17:11>  >>>> CORORT
 <Dec29-2009> <13:17:11>  >>>> FITINT
 <Dec29-2009> <13:17:11>  >>>> CLSMAT
 <Dec29-2009> <13:17:11>  >>>> ORTHON
 <Dec29-2009> <13:17:11>  >>>> GENPT
 <Dec29-2009> <13:17:11>  Acc.Num.Int.=  10.000
 <Dec29-2009> <13:17:11>  Block Length=  53
 <Dec29-2009> <13:17:11>  >>>> PTBAS
 <Dec29-2009> <13:17:11>  >>>> CYCLE
 <Dec29-2009> <13:17:11>    1
 <Dec29-2009> <13:17:11>    2  ErrMat   0.02564109  MaxEl -0.01392102
 <Dec29-2009> <13:17:11>    3  ErrMat   0.03146563  MaxEl  0.01775995
 <Dec29-2009> <13:17:11>    4  ErrMat   0.00079782  MaxEl  0.00042283
 <Dec29-2009> <13:17:11>    5  ErrMat   0.00000819  MaxEl  0.00000430
 <Dec29-2009> <13:17:11>    6  ErrMat   0.00000003  MaxEl  0.00000002
 <Dec29-2009> <13:17:11>    7  ErrMat   0.00000000  MaxEl  0.00000000
 <Dec29-2009> <13:17:11>  SCF converged
 <Dec29-2009> <13:17:11>    8  ErrMat   0.00000000  MaxEl  0.00000000
 <Dec29-2009> <13:17:11>   Solutions with partially occupied orbitals may not be
 <Dec29-2009> <13:17:11>   lowest in energy. You might consider lowering the
 <Dec29-2009> <13:17:11>   symmetry in the input and explicitly specifying integer
 <Dec29-2009> <13:17:11>   occupations. In that case always check that you obtain
 <Dec29-2009> <13:17:11>   an aufbau solution.
 <Dec29-2009> <13:17:11>  >>>> POPAN
 <Dec29-2009> <13:17:11>  >>>> DEBYE
 <Dec29-2009> <13:17:11>  NORMAL TERMINATION
 <Dec29-2009> <13:17:11>  END
 <Dec29-2009> <13:17:11>  ADF 2009.01  RunTime: Dec29-2009 13:17:11
 <Dec29-2009> <13:17:11>  mesityl nitrile oxide model
 <Dec29-2009> <13:17:11>  RunType   : GEOMETRY OPTIMIZATION
 <Dec29-2009> <13:17:11>  Net Charge: 0 (Nuclei minus Electrons)
 <Dec29-2009> <13:17:11>  Symmetry  : C(2V)
 <Dec29-2009> <13:17:11>  >>>> FRAGM
  Coordinates in Geometry Cycle 1
    Atom         X           Y           Z   (Angstrom)
    1.N         0.000000    0.000000    2.550000
    2.O         0.000000    0.000000    3.650000
    3.C         0.000000    0.000000    0.000000
    4.C         0.000000    0.000000    1.450000
    5.C         1.212436    0.000000   -0.700000
    6.C         1.212436    0.000000   -2.100000
    7.C         0.000000    0.000000   -2.800000
    8.C        -1.212436    0.000000   -2.100000
    9.C        -1.212436    0.000000   -0.700000
   10.C         2.468172    0.000000    0.025000
   11.H         2.155537    0.000000   -2.644500
   12.H         0.000000    0.000000   -3.889000
   13.H        -2.155537    0.000000   -2.644500
   14.C        -2.468172    0.000000    0.025000
   15.H        -3.295899    0.000000   -0.682665
   16.H        -2.525860   -0.889165    0.651082
   17.H        -2.525860    0.889165    0.651082
   18.H         3.295899    0.000000   -0.682665
   19.H         2.525860    0.889165    0.651082
   20.H         2.525860   -0.889165    0.651082
 <Dec29-2009> <13:17:11>  >>>> CORORT
 <Dec29-2009> <13:17:11>  >>>> FITINT
 <Dec29-2009> <13:17:13>  >>>> CLSMAT
 <Dec29-2009> <13:17:13>  >>>> ORTHON
 <Dec29-2009> <13:17:13>  >>>> GENPT
 <Dec29-2009> <13:17:13>  Acc.Num.Int.=   4.000
 <Dec29-2009> <13:17:14>  Block Length= 128
 <Dec29-2009> <13:17:14>  >>>> PTBAS
 <Dec29-2009> <13:17:22>  >>>> CYCLE
 <Dec29-2009> <13:17:24>    1
 <Dec29-2009> <13:17:26>    2  ErrMat   1.22730361  MaxEl -0.24480533
 <Dec29-2009> <13:17:28>    3  ErrMat   0.72532477  MaxEl -0.12759259
 <Dec29-2009> <13:17:31>    4  ErrMat   0.52269093  MaxEl -0.17734898
 <Dec29-2009> <13:17:33>    5  ErrMat   0.28383512  MaxEl -0.09040380
 <Dec29-2009> <13:17:35>    6  ErrMat   0.08552490  MaxEl  0.02105184
 <Dec29-2009> <13:17:37>    7  ErrMat   0.01549324  MaxEl -0.00282868
 <Dec29-2009> <13:17:39>    8  ErrMat   0.00966586  MaxEl  0.00311282
 <Dec29-2009> <13:17:42>    9  ErrMat   0.00295810  MaxEl -0.00090944
 <Dec29-2009> <13:17:42>  SCF converged
 <Dec29-2009> <13:17:44>   10  ErrMat   0.00066120  MaxEl  0.00015568
 <Dec29-2009> <13:17:44>  >>>> TOTEN
 <Dec29-2009> <13:17:51>  >>>> POPAN
 <Dec29-2009> <13:17:51>  >>>> DEBYE
 <Dec29-2009> <13:17:51>  >>>> AMETS
 <Dec29-2009> <13:17:51>  >>>> ENGRAD
 <Dec29-2009> <13:18:30>  current energy                               -4.46328564 Hartree
 <Dec29-2009> <13:18:30>  abs of energy change                4.46328564     0.00100000    F
 <Dec29-2009> <13:18:30>  constrained gradient max            0.45137509     0.00100000    F
 <Dec29-2009> <13:18:30>  constrained gradient rms            0.07957162     0.00066667    F
 <Dec29-2009> <13:18:30>  gradient max                        0.45137509
 <Dec29-2009> <13:18:30>  gradient rms                        0.07957162
 <Dec29-2009> <13:18:30>  cart. step max                      0.07660853     0.01000000    F
 <Dec29-2009> <13:18:30>  cart. step rms                      0.01366330     0.00666667    F
  Coordinates in Geometry Cycle 2
    Atom         X           Y           Z   (Angstrom)
    1.N         0.000000    0.000000    2.553349
    2.O         0.000000    0.000000    3.726609
    3.C         0.000000    0.000000   -0.020959
    4.C         0.000000    0.000000    1.402193
    5.C         1.214359    0.000000   -0.714957
    6.C         1.206229    0.000000   -2.108491
    7.C         0.000000    0.000000   -2.806719
    8.C        -1.206229    0.000000   -2.108491
    9.C        -1.214359    0.000000   -0.714957
   10.C         2.482013    0.000000    0.026324
   11.H         2.152365    0.000000   -2.645137
   12.H         0.000000    0.000000   -3.892409
   13.H        -2.152365    0.000000   -2.645137
   14.C        -2.482013    0.000000    0.026324
   15.H        -3.311567    0.000000   -0.676363
   16.H        -2.538411   -0.888496    0.659046
   17.H        -2.538411    0.888496    0.659046
   18.H         3.311567    0.000000   -0.676363
   19.H         2.538411    0.888496    0.659046
   20.H         2.538411   -0.888496    0.659046
 <Dec29-2009> <13:18:30>  >>>> CORORT
 <Dec29-2009> <13:18:30>  >>>> FITINT
 <Dec29-2009> <13:18:32>  >>>> CLSMAT
 <Dec29-2009> <13:18:32>  >>>> ORTHON
 <Dec29-2009> <13:18:32>  >>>> GENPT
 <Dec29-2009> <13:18:32>  Acc.Num.Int.=   4.000
 <Dec29-2009> <13:18:32>  Reusing previous cell geometry for gradient smoothing.
 <Dec29-2009> <13:18:32>  Block Length= 128
 <Dec29-2009> <13:18:33>  >>>> PTBAS
 <Dec29-2009> <13:18:41>  >>>> CYCLE
 <Dec29-2009> <13:18:43>    1
 <Dec29-2009> <13:18:46>    2  ErrMat   0.10045698  MaxEl -0.01675373
 <Dec29-2009> <13:18:48>    3  ErrMat   0.05522833  MaxEl -0.01121627
 <Dec29-2009> <13:18:50>    4  ErrMat   0.06386917  MaxEl -0.02769570
 <Dec29-2009> <13:18:53>    5  ErrMat   0.03445179  MaxEl -0.01100101
 <Dec29-2009> <13:18:55>    6  ErrMat   0.00759101  MaxEl  0.00184924
 <Dec29-2009> <13:18:57>    7  ErrMat   0.00177725  MaxEl -0.00040906
 <Dec29-2009> <13:18:59>    8  ErrMat   0.00080139  MaxEl  0.00022726
 <Dec29-2009> <13:19:02>    9  ErrMat   0.00015341  MaxEl -0.00003731
 <Dec29-2009> <13:19:02>  SCF converged
 <Dec29-2009> <13:19:04>   10  ErrMat   0.00003805  MaxEl -0.00000859
 <Dec29-2009> <13:19:04>  >>>> TOTEN
 <Dec29-2009> <13:19:11>  >>>> POPAN
 <Dec29-2009> <13:19:11>  >>>> DEBYE
 <Dec29-2009> <13:19:11>  >>>> AMETS
 <Dec29-2009> <13:19:11>  >>>> ENGRAD
 <Dec29-2009> <13:19:49>  current energy                               -4.49737534 Hartree
 <Dec29-2009> <13:19:49>  abs of energy change                0.03408969     0.00100000    F
 <Dec29-2009> <13:19:49>  constrained gradient max            0.11457665     0.00100000    F
 <Dec29-2009> <13:19:49>  constrained gradient rms            0.02003727     0.00066667    F
 <Dec29-2009> <13:19:49>  gradient max                        0.11457665
 <Dec29-2009> <13:19:49>  gradient rms                        0.02003727
 <Dec29-2009> <13:19:49>  cart. step max                      0.04604818     0.01000000    F
 <Dec29-2009> <13:19:49>  cart. step rms                      0.01639596     0.00666667    F
  Coordinates in Geometry Cycle 3
    Atom         X           Y           Z   (Angstrom)
    1.N         0.000000    0.000000    2.546021
    2.O         0.000000    0.000000    3.744232
    3.C         0.000000    0.000000   -0.035432
    4.C         0.000000    0.000000    1.381274
    5.C         1.226105    0.000000   -0.726095
    6.C         1.204885    0.000000   -2.118319
    7.C         0.000000    0.000000   -2.815021
    8.C        -1.204885    0.000000   -2.118319
    9.C        -1.226105    0.000000   -0.726095
   10.C         2.509909    0.000000    0.028728
   11.H         2.149060    0.000000   -2.655352
   12.H         0.000000    0.000000   -3.901021
   13.H        -2.149060    0.000000   -2.655352
   14.C        -2.509909    0.000000    0.028728
   15.H        -3.357615    0.000000   -0.656018
   16.H        -2.578252   -0.881952    0.673764
   17.H        -2.578252    0.881952    0.673764
   18.H         3.357615    0.000000   -0.656018
   19.H         2.578252    0.881952    0.673764
   20.H         2.578252   -0.881952    0.673764
 <Dec29-2009> <13:19:49>  >>>> CORORT
 <Dec29-2009> <13:19:49>  >>>> FITINT
 <Dec29-2009> <13:19:51>  >>>> CLSMAT
 <Dec29-2009> <13:19:51>  >>>> ORTHON
 <Dec29-2009> <13:19:51>  >>>> GENPT
 <Dec29-2009> <13:19:51>  Acc.Num.Int.=   4.000
 <Dec29-2009> <13:19:51>  Reusing previous cell geometry for gradient smoothing.
 <Dec29-2009> <13:19:51>  Block Length= 128
 <Dec29-2009> <13:19:52>  >>>> PTBAS
 <Dec29-2009> <13:20:01>  >>>> CYCLE
 <Dec29-2009> <13:20:03>    1
 <Dec29-2009> <13:20:05>    2  ErrMat   0.02869579  MaxEl -0.00427896
 <Dec29-2009> <13:20:07>    3  ErrMat   0.01826541  MaxEl -0.00293854
 <Dec29-2009> <13:20:10>    4  ErrMat   0.01841287  MaxEl  0.00541781
 <Dec29-2009> <13:20:12>    5  ErrMat   0.00722440  MaxEl -0.00217938
 <Dec29-2009> <13:20:14>    6  ErrMat   0.00291138  MaxEl  0.00113575
 <Dec29-2009> <13:20:16>    7  ErrMat   0.00065778  MaxEl -0.00019323
 <Dec29-2009> <13:20:19>    8  ErrMat   0.00024193  MaxEl  0.00006573
 <Dec29-2009> <13:20:19>  SCF converged
 <Dec29-2009> <13:20:21>    9  ErrMat   0.00007415  MaxEl -0.00002234
 <Dec29-2009> <13:20:21>  >>>> TOTEN
 <Dec29-2009> <13:20:27>  >>>> POPAN
 <Dec29-2009> <13:20:27>  >>>> DEBYE
 <Dec29-2009> <13:20:28>  >>>> AMETS
 <Dec29-2009> <13:20:28>  >>>> ENGRAD
 <Dec29-2009> <13:21:06>  current energy                               -4.50295783 Hartree
 <Dec29-2009> <13:21:06>  abs of energy change                0.00558250     0.00100000    F
 <Dec29-2009> <13:21:06>  constrained gradient max            0.03431001     0.00100000    F
 <Dec29-2009> <13:21:06>  constrained gradient rms            0.00609457     0.00066667    F
 <Dec29-2009> <13:21:06>  gradient max                        0.03431001
 <Dec29-2009> <13:21:06>  gradient rms                        0.00609457
 <Dec29-2009> <13:21:06>  cart. step max                      0.03628640     0.01000000    F
 <Dec29-2009> <13:21:06>  cart. step rms                      0.01264831     0.00666667    F
  Coordinates in Geometry Cycle 4
    Atom         X           Y           Z   (Angstrom)
    1.N         0.000000    0.000000    2.539551
    2.O         0.000000    0.000000    3.749721
    3.C         0.000000    0.000000   -0.044930
    4.C         0.000000    0.000000    1.369629
    5.C         1.235607    0.000000   -0.733544
    6.C         1.204510    0.000000   -2.125452
    7.C         0.000000    0.000000   -2.821100
    8.C        -1.204510    0.000000   -2.125452
    9.C        -1.235607    0.000000   -0.733544
   10.C         2.531374    0.000000    0.030562
   11.H         2.146699    0.000000   -2.663740
   12.H         0.000000    0.000000   -3.907750
   13.H        -2.146699    0.000000   -2.663740
   14.C        -2.531374    0.000000    0.030562
   15.H        -3.393901    0.000000   -0.639912
   16.H        -2.609766   -0.876610    0.685011
   17.H        -2.609766    0.876610    0.685011
   18.H         3.393901    0.000000   -0.639912
   19.H         2.609766    0.876610    0.685011
   20.H         2.609766   -0.876610    0.685011
 <Dec29-2009> <13:21:06>  >>>> CORORT
 <Dec29-2009> <13:21:06>  >>>> FITINT
 <Dec29-2009> <13:21:08>  >>>> CLSMAT
 <Dec29-2009> <13:21:08>  >>>> ORTHON
 <Dec29-2009> <13:21:08>  >>>> GENPT
 <Dec29-2009> <13:21:08>  Acc.Num.Int.=   4.000
 <Dec29-2009> <13:21:08>  Block Length= 128
 <Dec29-2009> <13:21:09>  >>>> PTBAS
 <Dec29-2009> <13:21:17>  >>>> CYCLE
 <Dec29-2009> <13:21:20>    1
 <Dec29-2009> <13:21:22>    2  ErrMat   0.01702157  MaxEl -0.00222115
 <Dec29-2009> <13:21:24>    3  ErrMat   0.01120952  MaxEl -0.00144503
 <Dec29-2009> <13:21:27>    4  ErrMat   0.01310244  MaxEl -0.00386601
 <Dec29-2009> <13:21:29>    5  ErrMat   0.00588185  MaxEl -0.00180750
 <Dec29-2009> <13:21:31>    6  ErrMat   0.00092486  MaxEl  0.00030807
 <Dec29-2009> <13:21:34>    7  ErrMat   0.00046207  MaxEl -0.00013608
 <Dec29-2009> <13:21:36>    8  ErrMat   0.00010357  MaxEl  0.00002586
 <Dec29-2009> <13:21:36>  SCF converged
 <Dec29-2009> <13:21:38>    9  ErrMat   0.00003337  MaxEl -0.00001199
 <Dec29-2009> <13:21:38>  >>>> TOTEN
 <Dec29-2009> <13:21:45>  >>>> POPAN
 <Dec29-2009> <13:21:45>  >>>> DEBYE
 <Dec29-2009> <13:21:45>  >>>> AMETS
 <Dec29-2009> <13:21:45>  >>>> ENGRAD
 <Dec29-2009> <13:22:25>  current energy                               -4.50392378 Hartree
 <Dec29-2009> <13:22:25>  abs of energy change                0.00096594     0.00100000    T
 <Dec29-2009> <13:22:25>  constrained gradient max            0.01442886     0.00100000    F
 <Dec29-2009> <13:22:25>  constrained gradient rms            0.00283587     0.00066667    F
 <Dec29-2009> <13:22:25>  gradient max                        0.01442886
 <Dec29-2009> <13:22:25>  gradient rms                        0.00283587
 <Dec29-2009> <13:22:25>  cart. step max                      0.00871395     0.01000000    T
 <Dec29-2009> <13:22:25>  cart. step rms                      0.00351428     0.00666667    T
  Coordinates in Geometry Cycle 5
    Atom         X           Y           Z   (Angstrom)
    1.N         0.000000    0.000000    2.542431
    2.O         0.000000    0.000000    3.752660
    3.C         0.000000    0.000000   -0.041281
    4.C         0.000000    0.000000    1.374548
    5.C         1.237394    0.000000   -0.729709
    6.C         1.207169    0.000000   -2.122503
    7.C         0.000000    0.000000   -2.815895
    8.C        -1.207169    0.000000   -2.122503
    9.C        -1.237394    0.000000   -0.729709
   10.C         2.536189    0.000000    0.030010
   11.H         2.147654    0.000000   -2.666957
   12.H         0.000000    0.000000   -3.901947
   13.H        -2.147654    0.000000   -2.666957
   14.C        -2.536189    0.000000    0.030010
   15.H        -3.393161    0.000000   -0.646619
   16.H        -2.618480   -0.878419    0.680510
   17.H        -2.618480    0.878419    0.680510
   18.H         3.393161    0.000000   -0.646619
   19.H         2.618480    0.878419    0.680510
   20.H         2.618480   -0.878419    0.680510
 <Dec29-2009> <13:22:25>  >>>> CORORT
 <Dec29-2009> <13:22:25>  >>>> FITINT
 <Dec29-2009> <13:22:27>  >>>> CLSMAT
 <Dec29-2009> <13:22:27>  >>>> ORTHON
 <Dec29-2009> <13:22:27>  >>>> GENPT
 <Dec29-2009> <13:22:27>  Acc.Num.Int.=   4.000
 <Dec29-2009> <13:22:27>  Reusing previous cell geometry for gradient smoothing.
 <Dec29-2009> <13:22:27>  Block Length= 128
 <Dec29-2009> <13:22:28>  >>>> PTBAS
 <Dec29-2009> <13:22:36>  >>>> CYCLE
 <Dec29-2009> <13:22:39>    1
 <Dec29-2009> <13:22:41>    2  ErrMat   0.00703951  MaxEl  0.00139145
 <Dec29-2009> <13:22:43>    3  ErrMat   0.00347972  MaxEl  0.00067716
 <Dec29-2009> <13:22:45>    4  ErrMat   0.00740006  MaxEl -0.00234805
 <Dec29-2009> <13:22:48>    5  ErrMat   0.00217525  MaxEl -0.00055606
 <Dec29-2009> <13:22:50>    6  ErrMat   0.00044894  MaxEl -0.00010906
 <Dec29-2009> <13:22:52>    7  ErrMat   0.00012776  MaxEl  0.00003752
 <Dec29-2009> <13:22:52>  SCF converged
 <Dec29-2009> <13:22:55>    8  ErrMat   0.00005093  MaxEl -0.00001523
 <Dec29-2009> <13:22:55>  >>>> TOTEN
 <Dec29-2009> <13:23:02>  >>>> POPAN
 <Dec29-2009> <13:23:02>  >>>> DEBYE
 <Dec29-2009> <13:23:02>  >>>> AMETS
 <Dec29-2009> <13:23:02>  >>>> ENGRAD
 <Dec29-2009> <13:23:42>  current energy                               -4.50404053 Hartree
 <Dec29-2009> <13:23:42>  abs of energy change                0.00011676     0.00100000    T
 <Dec29-2009> <13:23:42>  constrained gradient max            0.00542697     0.00100000    F
 <Dec29-2009> <13:23:42>  constrained gradient rms            0.00103420     0.00066667    F
 <Dec29-2009> <13:23:42>  gradient max                        0.00542697
 <Dec29-2009> <13:23:42>  gradient rms                        0.00103420
 <Dec29-2009> <13:23:42>  cart. step max                      0.00636771     0.01000000    T
 <Dec29-2009> <13:23:42>  cart. step rms                      0.00217555     0.00666667    T
  Coordinates in Geometry Cycle 6
    Atom         X           Y           Z   (Angstrom)
    1.N         0.000000    0.000000    2.543717
    2.O         0.000000    0.000000    3.754561
    3.C         0.000000    0.000000   -0.039716
    4.C         0.000000    0.000000    1.376714
    5.C         1.238846    0.000000   -0.727940
    6.C         1.208627    0.000000   -2.121211
    7.C         0.000000    0.000000   -2.813298
    8.C        -1.208627    0.000000   -2.121211
    9.C        -1.238846    0.000000   -0.727940
   10.C         2.539904    0.000000    0.029792
   11.H         2.148070    0.000000   -2.669150
   12.H         0.000000    0.000000   -3.899050
   13.H        -2.148070    0.000000   -2.669150
   14.C        -2.539904    0.000000    0.029792
   15.H        -3.394509    0.000000   -0.649565
   16.H        -2.624848   -0.879165    0.678554
   17.H        -2.624848    0.879165    0.678554
   18.H         3.394509    0.000000   -0.649565
   19.H         2.624848    0.879165    0.678554
   20.H         2.624848   -0.879165    0.678554
 <Dec29-2009> <13:23:42>  >>>> CORORT
 <Dec29-2009> <13:23:42>  >>>> FITINT
 <Dec29-2009> <13:23:43>  >>>> CLSMAT
 <Dec29-2009> <13:23:43>  >>>> ORTHON
 <Dec29-2009> <13:23:44>  >>>> GENPT
 <Dec29-2009> <13:23:44>  Acc.Num.Int.=   4.000
 <Dec29-2009> <13:23:44>  Reusing previous cell geometry for gradient smoothing.
 <Dec29-2009> <13:23:44>  Block Length= 128
 <Dec29-2009> <13:23:44>  >>>> PTBAS
 <Dec29-2009> <13:23:53>  >>>> CYCLE
 <Dec29-2009> <13:23:55>    1
 <Dec29-2009> <13:23:57>    2  ErrMat   0.00367970  MaxEl  0.00079821
 <Dec29-2009> <13:23:59>    3  ErrMat   0.00181199  MaxEl  0.00031813
 <Dec29-2009> <13:24:02>    4  ErrMat   0.00363466  MaxEl -0.00113442
 <Dec29-2009> <13:24:04>    5  ErrMat   0.00116116  MaxEl -0.00030221
 <Dec29-2009> <13:24:06>    6  ErrMat   0.00023829  MaxEl -0.00006142
 <Dec29-2009> <13:24:06>  SCF converged
 <Dec29-2009> <13:24:09>    7  ErrMat   0.00006326  MaxEl  0.00001835
 <Dec29-2009> <13:24:09>  >>>> TOTEN
 <Dec29-2009> <13:24:15>  >>>> POPAN
 <Dec29-2009> <13:24:15>  >>>> DEBYE
 <Dec29-2009> <13:24:15>  >>>> AMETS
 <Dec29-2009> <13:24:16>  >>>> ENGRAD
 <Dec29-2009> <13:24:54>  current energy                               -4.50406530 Hartree
 <Dec29-2009> <13:24:54>  abs of energy change                0.00002476     0.00100000    T
 <Dec29-2009> <13:24:54>  constrained gradient max            0.00107085     0.00100000    F
 <Dec29-2009> <13:24:54>  constrained gradient rms            0.00035545     0.00066667    T
 <Dec29-2009> <13:24:54>  gradient max                        0.00107085
 <Dec29-2009> <13:24:54>  gradient rms                        0.00035545
 <Dec29-2009> <13:24:54>  cart. step max                      0.00218662     0.01000000    T
 <Dec29-2009> <13:24:54>  cart. step rms                      0.00084591     0.00666667    T
  Coordinates in Geometry Cycle 7
    Atom         X           Y           Z   (Angstrom)
    1.N         0.000000    0.000000    2.542887
    2.O         0.000000    0.000000    3.753626
    3.C         0.000000    0.000000   -0.040258
    4.C         0.000000    0.000000    1.375940
    5.C         1.238270    0.000000   -0.728258
    6.C         1.208238    0.000000   -2.121425
    7.C         0.000000    0.000000   -2.814008
    8.C        -1.208238    0.000000   -2.121425
    9.C        -1.238270    0.000000   -0.728258
   10.C         2.538569    0.000000    0.030456
   11.H         2.146956    0.000000   -2.669015
   12.H         0.000000    0.000000   -3.900100
   13.H        -2.146956    0.000000   -2.669015
   14.C        -2.538569    0.000000    0.030456
   15.H        -3.392858    0.000000   -0.649789
   16.H        -2.622661   -0.878884    0.679743
   17.H        -2.622661    0.878884    0.679743
   18.H         3.392858    0.000000   -0.649789
   19.H         2.622661    0.878884    0.679743
   20.H         2.622661   -0.878884    0.679743
 <Dec29-2009> <13:24:54>  >>>> CORORT
 <Dec29-2009> <13:24:54>  >>>> FITINT
 <Dec29-2009> <13:24:56>  >>>> CLSMAT
 <Dec29-2009> <13:24:56>  >>>> ORTHON
 <Dec29-2009> <13:24:56>  >>>> GENPT
 <Dec29-2009> <13:24:56>  Acc.Num.Int.=   4.000
 <Dec29-2009> <13:24:56>  Reusing previous cell geometry for gradient smoothing.
 <Dec29-2009> <13:24:56>  Block Length= 128
 <Dec29-2009> <13:24:57>  >>>> PTBAS
 <Dec29-2009> <13:25:06>  >>>> CYCLE
 <Dec29-2009> <13:25:08>    1
 <Dec29-2009> <13:25:10>    2  ErrMat   0.00094472  MaxEl  0.00014800
 <Dec29-2009> <13:25:13>    3  ErrMat   0.00059166  MaxEl  0.00008744
 <Dec29-2009> <13:25:15>    4  ErrMat   0.00057272  MaxEl  0.00012295
 <Dec29-2009> <13:25:18>    5  ErrMat   0.00030590  MaxEl  0.00008897
 <Dec29-2009> <13:25:20>    6  ErrMat   0.00009348  MaxEl  0.00002999
 <Dec29-2009> <13:25:22>    7  ErrMat   0.00002442  MaxEl  0.00000919
 <Dec29-2009> <13:25:23>  SCF converged
 <Dec29-2009> <13:25:25>    8  ErrMat   0.00000606  MaxEl -0.00000153
 <Dec29-2009> <13:25:25>  >>>> TOTEN
 <Dec29-2009> <13:25:33>  >>>> POPAN
 <Dec29-2009> <13:25:33>  >>>> DEBYE
 <Dec29-2009> <13:25:33>  >>>> AMETS
 <Dec29-2009> <13:25:33>  >>>> ENGRAD
 <Dec29-2009> <13:26:12>  current energy                               -4.50406057 Hartree
 <Dec29-2009> <13:26:12>  abs of energy change                0.00000473     0.00100000    T
 <Dec29-2009> <13:26:12>  constrained gradient max            0.00053948     0.00100000    T
 <Dec29-2009> <13:26:12>  constrained gradient rms            0.00014001     0.00066667    T
 <Dec29-2009> <13:26:12>  gradient max                        0.00053948
 <Dec29-2009> <13:26:12>  gradient rms                        0.00014001
 <Dec29-2009> <13:26:12>  cart. step max                      0.00033847     0.01000000    T
 <Dec29-2009> <13:26:12>  cart. step rms                      0.00013897     0.00666667    T
 <Dec29-2009> <13:26:12>  GEOMETRY CONVERGED
 <Dec29-2009> <13:26:12>  Calculating Energy Terms for Final Geometry
  Coordinates in Geometry Cycle 7
    Atom         X           Y           Z   (Angstrom)
    1.N         0.000000    0.000000    2.542887
    2.O         0.000000    0.000000    3.753626
    3.C         0.000000    0.000000   -0.040258
    4.C         0.000000    0.000000    1.375940
    5.C         1.238270    0.000000   -0.728258
    6.C         1.208238    0.000000   -2.121425
    7.C         0.000000    0.000000   -2.814008
    8.C        -1.208238    0.000000   -2.121425
    9.C        -1.238270    0.000000   -0.728258
   10.C         2.538569    0.000000    0.030456
   11.H         2.146956    0.000000   -2.669015
   12.H         0.000000    0.000000   -3.900100
   13.H        -2.146956    0.000000   -2.669015
   14.C        -2.538569    0.000000    0.030456
   15.H        -3.392858    0.000000   -0.649789
   16.H        -2.622661   -0.878884    0.679743
   17.H        -2.622661    0.878884    0.679743
   18.H         3.392858    0.000000   -0.649789
   19.H         2.622661    0.878884    0.679743
   20.H         2.622661   -0.878884    0.679743
 <Dec29-2009> <13:26:12>  >>>> CORORT
 <Dec29-2009> <13:26:12>  >>>> FITINT
 <Dec29-2009> <13:26:13>  >>>> CLSMAT
 <Dec29-2009> <13:26:13>  >>>> ORTHON
 <Dec29-2009> <13:26:14>  >>>> GENPT
 <Dec29-2009> <13:26:14>  Acc.Num.Int.=   4.000
 <Dec29-2009> <13:26:14>  Reusing previous cell geometry for gradient smoothing.
 <Dec29-2009> <13:26:14>  Block Length= 128
 <Dec29-2009> <13:26:14>  >>>> PTBAS
 <Dec29-2009> <13:26:23>  >>>> CYCLE
 <Dec29-2009> <13:26:25>    1
 <Dec29-2009> <13:26:28>    2  ErrMat   0.00000371  MaxEl -0.00000123
 <Dec29-2009> <13:26:30>    3  ErrMat   0.00000129  MaxEl -0.00000031
 <Dec29-2009> <13:26:30>  SCF converged
 <Dec29-2009> <13:26:32>    4  ErrMat   0.00000229  MaxEl  0.00000068
 <Dec29-2009> <13:26:33>  >>>> TOTEN
 <Dec29-2009> <13:26:45>  >>>> POPAN
 <Dec29-2009> <13:26:45>  >>>> DEBYE
 <Dec29-2009> <13:26:46>  >>>> AMETS
 <Dec29-2009> <13:26:46>  >>>> POPUL
 <Dec29-2009> <13:26:46>   Bond Energy LDA      -4.64694434 a.u.
 <Dec29-2009> <13:26:46>   Bond Energy LDA    -126.44978923 eV
 <Dec29-2009> <13:26:46>           + GGA-X      -4.05879380 a.u.
 <Dec29-2009> <13:26:46>           + GGA-X    -110.44539887 eV
 <Dec29-2009> <13:26:46>          + GGA-XC      -4.50405882 a.u.
 <Dec29-2009> <13:26:46>          + GGA-XC    -122.56167642 eV
 <Dec29-2009> <13:26:46>  NORMAL TERMINATION
 <Dec29-2009> <13:26:46>  END
 <Dec29-2009> <16:19:33>  DIRAC 2009.01  RunTime: Dec29-2009 16:19:33
 <Dec29-2009> <16:19:33>  NORMAL TERMINATION
 <Dec29-2009> <16:19:34>  END
 <Dec29-2009> <16:19:34>  ADF 2009.01  RunTime: Dec29-2009 16:19:34
 <Dec29-2009> <16:19:34>  Hydrogen (TZ2P)
 <Dec29-2009> <16:19:34>  RunType   : CREATE
 <Dec29-2009> <16:19:34>  Net Charge: 0 (Nuclei minus Electrons)
 <Dec29-2009> <16:19:34>  Symmetry  : ATOM
 <Dec29-2009> <16:19:34>  >>>> CORORT
 <Dec29-2009> <16:19:34>  >>>> FITINT
 <Dec29-2009> <16:19:34>  >>>> CLSMAT
 <Dec29-2009> <16:19:34>  >>>> ORTHON
 <Dec29-2009> <16:19:34>  >>>> GENPT
 <Dec29-2009> <16:19:34>  Acc.Num.Int.=  10.000
 <Dec29-2009> <16:19:34>  Block Length=  41
 <Dec29-2009> <16:19:34>  >>>> PTBAS
 <Dec29-2009> <16:19:34>  >>>> CYCLE
 <Dec29-2009> <16:19:34>    1
 <Dec29-2009> <16:19:34>    2  ErrMat   0.00333796  MaxEl -0.00317312
 <Dec29-2009> <16:19:34>    3  ErrMat   0.00120595  MaxEl  0.00120509
 <Dec29-2009> <16:19:34>    4  ErrMat   0.00004249  MaxEl  0.00003893
 <Dec29-2009> <16:19:34>    5  ErrMat   0.00000009  MaxEl -0.00000008
 <Dec29-2009> <16:19:34>    6  ErrMat   0.00000000  MaxEl  0.00000000
 <Dec29-2009> <16:19:34>  SCF converged
 <Dec29-2009> <16:19:34>    7  ErrMat   0.00000000  MaxEl  0.00000000
 <Dec29-2009> <16:19:34>   Solutions with partially occupied orbitals may not be
 <Dec29-2009> <16:19:34>   lowest in energy. You might consider lowering the
 <Dec29-2009> <16:19:34>   symmetry in the input and explicitly specifying integer
 <Dec29-2009> <16:19:34>   occupations. In that case always check that you obtain
 <Dec29-2009> <16:19:34>   an aufbau solution.
 <Dec29-2009> <16:19:34>  >>>> POPAN
 <Dec29-2009> <16:19:34>  >>>> DEBYE
 <Dec29-2009> <16:19:34>  NORMAL TERMINATION
 <Dec29-2009> <16:19:34>  END
NORMAL TERMINATION

 *******************************************************************************
 *                                                                             *
 *  -------------------------------------                                      *
 *   Amsterdam Density Functional  (ADF)         2009.01   September 29th, 2009*
 *  -------------------------------------                                      *
 *                                               Build 200909271755            *
 *                                                                             *
 *                                                                             *
 *                            =====================                            *
 *                            |                   |                            *
 *                            |     D I R A C     |                            *
 *                            |                   |                            *
 *                            =====================                            *
 *                                                                             *
 *                                                                             *
 *   Online information and documentation:  http://www.scm.com                 *
 *   E-mail:  support@scm.com   info@scm.com                                   *
 *                                                                             *
 *   Scientific publications using ADF results must be properly referenced     *
 *   See the User Manuals (or the web site) for recommended citations          *
 *   The terms and conditions of the End User License Agreement apply to       *
 *   the use of ADF, http://www.scm.com/Sales/LicAgreement.html                *
 *                                                                             *
 ************************  pentium_linux_ifc / hpmpi  **************************
 
 DIRAC 2009.01  RunTime: Dec29-2009 16:19:34

 Temporary files are created in /home/kit/Documents/calcs_local/oncmes/kid_0.kmvhbE

1
 NITROGEN ATOM 1s CORE RELATIVISTIC, Point Nuc, A and c from 
 N J RN H ZN XION ANUC CLIGHT
 5000    4100.00000000197.36710137  7.00000000  0.00000000   14.003074  0.1370360E+03
  PH   PHI     EPS        DEL        DELRVR
  0.30  0.30     2500.00  0.00001000  0.00001000
 IDIRC  NC1  NDEBU NPRIN  IPUN IRCOR IWCOR
   1   300     0     0     0     0     1
   XALPHA      XLATTER      RNUC
  0.70000000  0.00000000  0.00000000 Point Charge
   XN   XL   XJ      XE          XZ      XDELL
  1.0  0.0  0.5      -5.000       2.000     0.00000
  2.0  0.0  0.5      -1.000       2.000     0.00000
  2.0  1.0  0.5      -1.000       2.000     0.00000
  2.0  1.0  1.5      -1.000       1.000     0.00000
 ICORP=  0  NPCL=  0  DEMP=0.00  PEPS=0.000000
 R(1)=  0.1000000E-08 D=  0.1005080E+01 RNUC=  0.0000000E+00
 converged at cycle   25  DENSITY AVERAGING    0.3000
  MAXIMUM ERROR IN R.V(R) IS   0.97905511E-05
 Q,EY,EV,EZ,ESUM,ETOT,RHO  0.700000E+01 -0.796419E+01 -0.840156E+02 -0.127663E+03 -0.300692E+02 -0.538837E+02  0.270066E-14


 DIRAC CALCULATION
1                    NITROGEN ATOM 1s CORE RELATIVISTIC, Point Nuc, A and c from libtc


 EXCHANGE COEFFICIENT=  0.7000000           TAIL CORRECTION=  0.           NUCLEAR RADIUS=  0.000E+00
0                       ORBITAL    N    L    J     ELECTRONS     EIGENVALUE                DELTA OF EIGENV.

                          1S1/2  1.0  0.0  0.5     2.000       -0.1403720E+02                 0.4993583E-04
                          2S1/2  2.0  0.0  0.5     2.000       -0.6456810E+00                 0.6544571E-05
                          2P1/2  2.0  1.0  0.5     2.000       -0.2347008E+00                 0.5687228E-05
                          2P3/2  2.0  1.0  1.5     1.000       -0.2339893E+00                 0.5679256E-05


                                        NUCLEAR CHARGE=    7.000000
                            INTEGRAL OF CHARGE DENSITY=    7.000000
                           SUM OF THE ORBITAL ENERGIES=    -30.0692
                                          TOTAL ENERGY=    -53.8837
                                        KINETIC ENERGY=     53.9465
                             NUCLEAR ATTRACTION ENERGY=   -127.6627
                             ELECTRON REPULSION ENERGY=     25.8056
                                       EXCHANGE ENERGY=     -5.9731

 *******************************************************************************

                             D I R A C   E X I T
 NORMAL TERMINATION



 =================
 Timing Statistics
 =================
  
 Total Used :                     CPU=        0.25      System=        0.06     Elapsed=        0.31

 Calls  Section                     ( Mean, Percentage )
 ---------------------------------------------------------------------------------------------------
     2  ><      ................      0.00    0.00             0.00    0.00             0.00    0.01
     1  EXIT PROCEDURE .........      0.25  100.00             0.06  100.00             0.31   99.99


 Currently Open Files (EXIT00)
 ====================

 Unit    Access Format  Status   Type       Ident (file)
 -------------------------------------------------------
   3      SEQ    FORM   TRANSP  NORMAL      LOGFILE
                                          ( logfile )


 Buffered I/O statistics
 =======================
 Memory available:                     67108864
 Number of records fitting in memory:     16225
 Input : 100.0% of                            0  *4k bytes
 Output: 100.0% of                            0  *4k bytes
 Records from serial files evicted:           0
                    others evicted:           0
 Hash table lookups:          0 with          0 conflicts (100.00%)
NORMAL TERMINATION
(INPUT FILE)
Create N   file=/home/kit/adf/adf2009.01/atomicdata/ZORA/TZ2P/N.1s
XC
  GGA OLYP
End
relativistic ZORA
Corepotentials t12.rel
End Input

 *******************************************************************************
 *                                                                             *
 *  -------------------------------------                                      *
 *   Amsterdam Density Functional  (ADF)         2009.01   September 29th, 2009*
 *  -------------------------------------                                      *
 *                                               Build 200909271755            *
 *                                                                             *
 *                                                                             *
 *                              =================                              *
 *                              |               |                              *
 *                              |     A D F     |                              *
 *                              |               |                              *
 *                              =================                              *
 *                                                                             *
 *                                                                             *
 *   Online information and documentation:  http://www.scm.com                 *
 *   E-mail:  support@scm.com   info@scm.com                                   *
 *                                                                             *
 *   Scientific publications using ADF results must be properly referenced     *
 *   See the User Manuals (or the web site) for recommended citations          *
 *   The terms and conditions of the End User License Agreement apply to       *
 *   the use of ADF, http://www.scm.com/Sales/LicAgreement.html                *
 *                                                                             *
 ************************  pentium_linux_ifc / hpmpi  **************************
 
 ADF 2009.01  RunTime: Dec29-2009 16:19:34

 Temporary files are created in /home/kit/Documents/calcs_local/oncmes/kid_0.uueXx1

 Nitrogen (TZ2P, 1s frozen)



 ===========================
 A T T A C H E D   F I L E S
 ===========================
  
 CREATE - Data File:    /home/kit/adf/adf2009.01/atomicdata/ZORA/TZ2P/N.1s
                        Nitrogen (TZ2P, 1s frozen)
 Core Potentials:
         file : t12.rel



 ===============================
 M O D E L   P A R A M E T E R S
 ===============================
  
 DENSITY FUNCTIONAL POTENTIAL (scf)
    LDA:                               Exchange only                           == Not Default ==
    Gradient Corrections:              OPTX LYP                                == Not Default ==

 SPIN  (restricted / unrestr.)
    Molecule:                          Restricted                               

 OTHER ASPECTS
    Relativistic Corrections:          scalar (ZORA,SAPA)                       *** SPECIAL ***

    Nuclear Charge Density Model:      Point Charge Nuclei                                                                                                                                                                                     
    Core Treatment:                    Frozen Orbital(s)                        

    Electric Field:                    ---                                      

    Hyperfine or Zeeman Interaction:   ---                                      



 =====================================
 S Y M M E T R Y ,   E L E C T R O N S
 =====================================
  
 Symmetry: ATOM

 Irreducible Representations, including subspecies
 -------------------------------------------------
 S
 P:x  P:y  P:z
 D:z2  D:x2-y2  D:xy  D:xz  D:yz
 F:z3  F:z  F:xyz  F:z2x  F:z2y  F:x  F:y


 Configuration of Valence Electrons
 ==================================

          Occupation Numbers
          -------------------------------------------------
 S        2
 P        3
 D        0
 F        0
          -------------------------------------------------

 Total:   5

 Net Charge: 0 (Nuclei minus Electrons)

 Preset values for MO occupations will be applied through SCF cycle no. 1000000
 Thereafter, the program will assign electrons to MOs that are spatially
 similar to the occupied MOs in a "reference" cycle ("KeepOrbitals").
 The reference cycle is always the PREVIOUS cycle: it will evolve with
 the SCF procedure.



 ================================
 (Slater-type)  F U N C T I O N S  ***  (Basis and Fit)  ***
 ================================
  

 Atom Type    1  (N)
 ==============

 Valence Basis Sets:   9
 -----------------------
   1 S    6.380000
   2 S    1.500000
   2 S    2.500000
   2 S    5.150000
   2 P    1.000000
   2 P    1.880000
   2 P    3.680000
   3 D    2.200000
   4 F    3.300000

 Frozen Core Shells
 ------------------
    S:  1

 Charge Fitting Sets (for the computation of the Coulomb Potential):  20
 -----------------------------------------------------------------------
   1 S   12.760000
   2 S   13.770000
   2 S    9.060000
   2 S    5.970000
   3 S    5.770000
   3 S    4.050000
   3 S    2.850000
   3 S    2.000000
   2 P   10.060000
   2 P    6.180000
   3 P    5.600000
   3 P    3.710000
   3 P    2.460000
   3 D    8.380000
   3 D    5.200000
   3 D    3.220000
   3 D    2.000000
   4 F    5.800000
   4 F    3.600000
   5 G    4.500000


 BAS: List of all Elementary Cartesian Basis Functions
 =====================================================

 The numbering in the list below (to the right of the function characteristics) is referred
 to in print-outs of MO eigenvectors and Mulliken populations in the BAS representation
 (as contrasted to the SFO representation).

 Notes:
 1. The functions are characterized by a polynomial prefactor (powers of x,y,z and r) and
    an exponential decay factor alpha.
 2. Since the basis sets are specific for an atom TYPE, the individual functions occur on
    all atoms of that type.
 3. The word 'Core' in the left margin signals that it is a Core Function (CF) : not a
    degree of freedom in the valence set, but only used to ensure orthogonalization of
    the other valence basis functions on the frozen Core Orbitals.


 (power of) X  Y  Z  R     Alpha  on Atom
            ==========     =====     ==========

 N                                    1
                                  ---------------------------------------------------------------------------
    Core    0  0  0  0     6.380      1
            0  0  0  1     1.500      2
            0  0  0  1     2.500      3
            0  0  0  1     5.150      4
            1  0  0  0     1.000      5
            0  1  0  0     1.000      6
            0  0  1  0     1.000      7
            1  0  0  0     1.880      8
            0  1  0  0     1.880      9
            0  0  1  0     1.880     10
            1  0  0  0     3.680     11
            0  1  0  0     3.680     12
            0  0  1  0     3.680     13
            2  0  0  0     2.200     14
            1  1  0  0     2.200     15
            1  0  1  0     2.200     16
            0  2  0  0     2.200     17
            0  1  1  0     2.200     18
            0  0  2  0     2.200     19
            3  0  0  0     3.300     20
            2  1  0  0     3.300     21
            2  0  1  0     3.300     22
            1  2  0  0     3.300     23
            1  1  1  0     3.300     24
            1  0  2  0     3.300     25
            0  3  0  0     3.300     26
            0  2  1  0     3.300     27
            0  1  2  0     3.300     28
            0  0  3  0     3.300     29

 Total number of charge fitting functions (nprimf)        82
 Total number of Cartesian basis functions (naos)         29
 Total number of Cartesian core functions  (ncos)          1



 BAS: List of all Elementary Cartesian Basis Functions
 =====================================================

 The numbering in the list below (to the right of the function characteristics) is referred
 to in print-outs of MO eigenvectors and Mulliken populations in the BAS representation
 (as contrasted to the SFO representation).

 Notes:
 1. The functions are characterized by a polynomial prefactor (powers of x,y,z and r) and
    an exponential decay factor alpha.
 2. Since the basis sets are specific for an atom TYPE, the individual functions occur on
    all atoms of that type.
 3. The word 'Core' in the left margin signals that it is a Core Function (CF) : not a
    degree of freedom in the valence set, but only used to ensure orthogonalization of
    the other valence basis functions on the frozen Core Orbitals.


 (power of) X  Y  Z  R     Alpha  on Atom
            ==========     =====     ==========

 N                                    1
                                  ---------------------------------------------------------------------------
    Core    0  0  0  0     6.380      1
            0  0  0  1     1.500      2
            0  0  0  1     2.500      3
            0  0  0  1     5.150      4
            1  0  0  0     1.000      5
            0  1  0  0     1.000      6
            0  0  1  0     1.000      7
            1  0  0  0     1.880      8
            0  1  0  0     1.880      9
            0  0  1  0     1.880     10
            1  0  0  0     3.680     11
            0  1  0  0     3.680     12
            0  0  1  0     3.680     13
            2  0  0  0     2.200     14
            1  1  0  0     2.200     15
            1  0  1  0     2.200     16
            0  2  0  0     2.200     17
            0  1  1  0     2.200     18
            0  0  2  0     2.200     19
            3  0  0  0     3.300     20
            2  1  0  0     3.300     21
            2  0  1  0     3.300     22
            1  2  0  0     3.300     23
            1  1  1  0     3.300     24
            1  0  2  0     3.300     25
            0  3  0  0     3.300     26
            0  2  1  0     3.300     27
            0  1  2  0     3.300     28
            0  0  3  0     3.300     29
1
 ***************************************************************************************************



                                              ***********************
                                              *  T E C H N I C A L  *
                                              ***********************
  



 =============================================================
 P A R A L L E L I Z A T I O N  and  V E C T O R I Z A T I O N
 =============================================================
  
 Nr of parallel processes:                                1
 Maximum vector length in NumInt loops:                 128



 ===============
 I O  vs.  C P U  ***  (store numerical data on disk or recalculate)  ***
 ===============
  
 Basis functions:   recalculate when needed
 Fit functions:     recalculate when needed

 IO buffersize (Mb):                                     64.000000



 =====================
 S C F   U P D A T E S
 =====================
  
 Max. nr. of cycles:                               100
 Convergence criterion:                              0.0000000100
   secondary criterion:                              0.0000000100

 Mix parameter (when DIIS does not apply):           0.2000000000
 Special mix parameter for the first cycle:          1.0000000000


 DIIS (Direct Inversion in Iteration Space)
    Replace damping when SCF Error is below:         0.5000000000
    Apply anyway after SCF cycle:
                                                     5
    (Max.) nr. of expansion vectors:                10

    Upperbound on expansion coefficients:            5.0000000000
    (when exceeded, IterationSpace is re-built)
    2nd Upperbound on coefficients:                 25.0000000000
    (when exceeded, simple damping will be used)
 Automatic ElectronSmearing (in case of problematic SCF convergence) disabled



 =================
 P R E C I S I O N  ***  (General: NumInt, NeglectFunctionTails, ...)  ***
 =================
  

 NumInt:           Target precision:                10.0000000000
 -------           Initial precision:               10.0000000000
                   Min. precision (optimization):   10.0000000000

 Neglect Functions:          Basis functions:        0.1000000000E-11
 ------------------          Fit functions:          0.1000000000E-11



 ===========================
 L I N E A R   S C A L I N G
 ===========================
  

 Cut-off radii density fit:                        0.1000000000E-13
 Overlap cut-off criterion AO matrix elements:     0.1000000000E-11
 Cut-offs for Coulomb potential and fitted density:0.1000000000E-13
 Cut-off criterion for Coulomb multipole terms:    0.1000000000E-13
 Progressive Convergence parameter:                 0.000000000    
1
 ***************************************************************************************************



                                            ***************************
                                            *  C O M P U T A T I O N  *
                                            ***************************
  

 Number of elements of the density matrix on this node (used, total):       435       435



 ====================================================
 Numerical Integration : Voronoi Polyhedra (Te Velde)  ***  (parameters, tests)  ***
 ====================================================
  
 General Accuracy Parameter :                         10.00

 Symmetry used in the points section:  ATOM  


 Summary of the Symmetry Unique Points:
 --------------------------------------
[...]
   20.H         2.618480   -0.878419    0.680510
 <Dec29-2009> <13:22:25>  >>>> CORORT
 <Dec29-2009> <13:22:25>  >>>> FITINT
 <Dec29-2009> <13:22:27>  >>>> CLSMAT
 <Dec29-2009> <13:22:27>  >>>> ORTHON
 <Dec29-2009> <13:22:27>  >>>> GENPT
 <Dec29-2009> <13:22:27>  Acc.Num.Int.=   4.000
 <Dec29-2009> <13:22:27>  Reusing previous cell geometry for gradient smoothing.
 <Dec29-2009> <13:22:27>  Block Length= 128
 <Dec29-2009> <13:22:28>  >>>> PTBAS
 <Dec29-2009> <13:22:36>  >>>> CYCLE
 <Dec29-2009> <13:22:39>    1
 <Dec29-2009> <13:22:41>    2  ErrMat   0.00703951  MaxEl  0.00139145
 <Dec29-2009> <13:22:43>    3  ErrMat   0.00347972  MaxEl  0.00067716
 <Dec29-2009> <13:22:45>    4  ErrMat   0.00740006  MaxEl -0.00234805
 <Dec29-2009> <13:22:48>    5  ErrMat   0.00217525  MaxEl -0.00055606
 <Dec29-2009> <13:22:50>    6  ErrMat   0.00044894  MaxEl -0.00010906
 <Dec29-2009> <13:22:52>    7  ErrMat   0.00012776  MaxEl  0.00003752
 <Dec29-2009> <13:22:52>  SCF converged
 <Dec29-2009> <13:22:55>    8  ErrMat   0.00005093  MaxEl -0.00001523
 <Dec29-2009> <13:22:55>  >>>> TOTEN
 <Dec29-2009> <13:23:02>  >>>> POPAN
 <Dec29-2009> <13:23:02>  >>>> DEBYE
 <Dec29-2009> <13:23:02>  >>>> AMETS
 <Dec29-2009> <13:23:02>  >>>> ENGRAD
 <Dec29-2009> <13:23:42>  current energy                               -4.50404053 Hartree
 <Dec29-2009> <13:23:42>  abs of energy change                0.00011676     0.00100000    T
 <Dec29-2009> <13:23:42>  constrained gradient max            0.00542697     0.00100000    F
 <Dec29-2009> <13:23:42>  constrained gradient rms            0.00103420     0.00066667    F
 <Dec29-2009> <13:23:42>  gradient max                        0.00542697
 <Dec29-2009> <13:23:42>  gradient rms                        0.00103420
 <Dec29-2009> <13:23:42>  cart. step max                      0.00636771     0.01000000    T
 <Dec29-2009> <13:23:42>  cart. step rms                      0.00217555     0.00666667    T
  Coordinates in Geometry Cycle 6
    Atom         X           Y           Z   (Angstrom)
    1.N         0.000000    0.000000    2.543717
    2.O         0.000000    0.000000    3.754561
    3.C         0.000000    0.000000   -0.039716
    4.C         0.000000    0.000000    1.376714
    5.C         1.238846    0.000000   -0.727940
    6.C         1.208627    0.000000   -2.121211
    7.C         0.000000    0.000000   -2.813298
    8.C        -1.208627    0.000000   -2.121211
    9.C        -1.238846    0.000000   -0.727940
   10.C         2.539904    0.000000    0.029792
   11.H         2.148070    0.000000   -2.669150
   12.H         0.000000    0.000000   -3.899050
   13.H        -2.148070    0.000000   -2.669150
   14.C        -2.539904    0.000000    0.029792
   15.H        -3.394509    0.000000   -0.649565
   16.H        -2.624848   -0.879165    0.678554
   17.H        -2.624848    0.879165    0.678554
   18.H         3.394509    0.000000   -0.649565
   19.H         2.624848    0.879165    0.678554
   20.H         2.624848   -0.879165    0.678554
 <Dec29-2009> <13:23:42>  >>>> CORORT
 <Dec29-2009> <13:23:42>  >>>> FITINT
 <Dec29-2009> <13:23:43>  >>>> CLSMAT
 <Dec29-2009> <13:23:43>  >>>> ORTHON
 <Dec29-2009> <13:23:44>  >>>> GENPT
 <Dec29-2009> <13:23:44>  Acc.Num.Int.=   4.000
 <Dec29-2009> <13:23:44>  Reusing previous cell geometry for gradient smoothing.
 <Dec29-2009> <13:23:44>  Block Length= 128
 <Dec29-2009> <13:23:44>  >>>> PTBAS
 <Dec29-2009> <13:23:53>  >>>> CYCLE
 <Dec29-2009> <13:23:55>    1
 <Dec29-2009> <13:23:57>    2  ErrMat   0.00367970  MaxEl  0.00079821
 <Dec29-2009> <13:23:59>    3  ErrMat   0.00181199  MaxEl  0.00031813
 <Dec29-2009> <13:24:02>    4  ErrMat   0.00363466  MaxEl -0.00113442
 <Dec29-2009> <13:24:04>    5  ErrMat   0.00116116  MaxEl -0.00030221
 <Dec29-2009> <13:24:06>    6  ErrMat   0.00023829  MaxEl -0.00006142
 <Dec29-2009> <13:24:06>  SCF converged
 <Dec29-2009> <13:24:09>    7  ErrMat   0.00006326  MaxEl  0.00001835
 <Dec29-2009> <13:24:09>  >>>> TOTEN
 <Dec29-2009> <13:24:15>  >>>> POPAN
 <Dec29-2009> <13:24:15>  >>>> DEBYE
 <Dec29-2009> <13:24:15>  >>>> AMETS
 <Dec29-2009> <13:24:16>  >>>> ENGRAD
 <Dec29-2009> <13:24:54>  current energy                               -4.50406530 Hartree
 <Dec29-2009> <13:24:54>  abs of energy change                0.00002476     0.00100000    T
 <Dec29-2009> <13:24:54>  constrained gradient max            0.00107085     0.00100000    F
 <Dec29-2009> <13:24:54>  constrained gradient rms            0.00035545     0.00066667    T
 <Dec29-2009> <13:24:54>  gradient max                        0.00107085
 <Dec29-2009> <13:24:54>  gradient rms                        0.00035545
 <Dec29-2009> <13:24:54>  cart. step max                      0.00218662     0.01000000    T
 <Dec29-2009> <13:24:54>  cart. step rms                      0.00084591     0.00666667    T
  Coordinates in Geometry Cycle 7
    Atom         X           Y           Z   (Angstrom)
    1.N         0.000000    0.000000    2.542887
    2.O         0.000000    0.000000    3.753626
    3.C         0.000000    0.000000   -0.040258
    4.C         0.000000    0.000000    1.375940
    5.C         1.238270    0.000000   -0.728258
    6.C         1.208238    0.000000   -2.121425
    7.C         0.000000    0.000000   -2.814008
    8.C        -1.208238    0.000000   -2.121425
    9.C        -1.238270    0.000000   -0.728258
   10.C         2.538569    0.000000    0.030456
   11.H         2.146956    0.000000   -2.669015
   12.H         0.000000    0.000000   -3.900100
   13.H        -2.146956    0.000000   -2.669015
   14.C        -2.538569    0.000000    0.030456
   15.H        -3.392858    0.000000   -0.649789
   16.H        -2.622661   -0.878884    0.679743
   17.H        -2.622661    0.878884    0.679743
   18.H         3.392858    0.000000   -0.649789
   19.H         2.622661    0.878884    0.679743
   20.H         2.622661   -0.878884    0.679743
 <Dec29-2009> <13:24:54>  >>>> CORORT
 <Dec29-2009> <13:24:54>  >>>> FITINT
 <Dec29-2009> <13:24:56>  >>>> CLSMAT
 <Dec29-2009> <13:24:56>  >>>> ORTHON
 <Dec29-2009> <13:24:56>  >>>> GENPT
 <Dec29-2009> <13:24:56>  Acc.Num.Int.=   4.000
 <Dec29-2009> <13:24:56>  Reusing previous cell geometry for gradient smoothing.
 <Dec29-2009> <13:24:56>  Block Length= 128
 <Dec29-2009> <13:24:57>  >>>> PTBAS
 <Dec29-2009> <13:25:06>  >>>> CYCLE
 <Dec29-2009> <13:25:08>    1
 <Dec29-2009> <13:25:10>    2  ErrMat   0.00094472  MaxEl  0.00014800
 <Dec29-2009> <13:25:13>    3  ErrMat   0.00059166  MaxEl  0.00008744
 <Dec29-2009> <13:25:15>    4  ErrMat   0.00057272  MaxEl  0.00012295
 <Dec29-2009> <13:25:18>    5  ErrMat   0.00030590  MaxEl  0.00008897
 <Dec29-2009> <13:25:20>    6  ErrMat   0.00009348  MaxEl  0.00002999
 <Dec29-2009> <13:25:22>    7  ErrMat   0.00002442  MaxEl  0.00000919
 <Dec29-2009> <13:25:23>  SCF converged
 <Dec29-2009> <13:25:25>    8  ErrMat   0.00000606  MaxEl -0.00000153
 <Dec29-2009> <13:25:25>  >>>> TOTEN
 <Dec29-2009> <13:25:33>  >>>> POPAN
 <Dec29-2009> <13:25:33>  >>>> DEBYE
 <Dec29-2009> <13:25:33>  >>>> AMETS
 <Dec29-2009> <13:25:33>  >>>> ENGRAD
 <Dec29-2009> <13:26:12>  current energy                               -4.50406057 Hartree
 <Dec29-2009> <13:26:12>  abs of energy change                0.00000473     0.00100000    T
 <Dec29-2009> <13:26:12>  constrained gradient max            0.00053948     0.00100000    T
 <Dec29-2009> <13:26:12>  constrained gradient rms            0.00014001     0.00066667    T
 <Dec29-2009> <13:26:12>  gradient max                        0.00053948
 <Dec29-2009> <13:26:12>  gradient rms                        0.00014001
 <Dec29-2009> <13:26:12>  cart. step max                      0.00033847     0.01000000    T
 <Dec29-2009> <13:26:12>  cart. step rms                      0.00013897     0.00666667    T
 <Dec29-2009> <13:26:12>  GEOMETRY CONVERGED
 <Dec29-2009> <13:26:12>  Calculating Energy Terms for Final Geometry
  Coordinates in Geometry Cycle 7
    Atom         X           Y           Z   (Angstrom)
    1.N         0.000000    0.000000    2.542887
    2.O         0.000000    0.000000    3.753626
    3.C         0.000000    0.000000   -0.040258
    4.C         0.000000    0.000000    1.375940
    5.C         1.238270    0.000000   -0.728258
    6.C         1.208238    0.000000   -2.121425
    7.C         0.000000    0.000000   -2.814008
    8.C        -1.208238    0.000000   -2.121425
    9.C        -1.238270    0.000000   -0.728258
   10.C         2.538569    0.000000    0.030456
   11.H         2.146956    0.000000   -2.669015
   12.H         0.000000    0.000000   -3.900100
   13.H        -2.146956    0.000000   -2.669015
   14.C        -2.538569    0.000000    0.030456
   15.H        -3.392858    0.000000   -0.649789
   16.H        -2.622661   -0.878884    0.679743
   17.H        -2.622661    0.878884    0.679743
   18.H         3.392858    0.000000   -0.649789
   19.H         2.622661    0.878884    0.679743
   20.H         2.622661   -0.878884    0.679743
 <Dec29-2009> <13:26:12>  >>>> CORORT
 <Dec29-2009> <13:26:12>  >>>> FITINT
 <Dec29-2009> <13:26:13>  >>>> CLSMAT
 <Dec29-2009> <13:26:13>  >>>> ORTHON
 <Dec29-2009> <13:26:14>  >>>> GENPT
 <Dec29-2009> <13:26:14>  Acc.Num.Int.=   4.000
 <Dec29-2009> <13:26:14>  Reusing previous cell geometry for gradient smoothing.
 <Dec29-2009> <13:26:14>  Block Length= 128
 <Dec29-2009> <13:26:14>  >>>> PTBAS
 <Dec29-2009> <13:26:23>  >>>> CYCLE
 <Dec29-2009> <13:26:25>    1
 <Dec29-2009> <13:26:28>    2  ErrMat   0.00000371  MaxEl -0.00000123
 <Dec29-2009> <13:26:30>    3  ErrMat   0.00000129  MaxEl -0.00000031
 <Dec29-2009> <13:26:30>  SCF converged
 <Dec29-2009> <13:26:32>    4  ErrMat   0.00000229  MaxEl  0.00000068
 <Dec29-2009> <13:26:33>  >>>> TOTEN
 <Dec29-2009> <13:26:45>  >>>> POPAN
 <Dec29-2009> <13:26:45>  >>>> DEBYE
 <Dec29-2009> <13:26:46>  >>>> AMETS
 <Dec29-2009> <13:26:46>  >>>> POPUL
 <Dec29-2009> <13:26:46>   Bond Energy LDA      -4.64694434 a.u.
 <Dec29-2009> <13:26:46>   Bond Energy LDA    -126.44978923 eV
 <Dec29-2009> <13:26:46>           + GGA-X      -4.05879380 a.u.
 <Dec29-2009> <13:26:46>           + GGA-X    -110.44539887 eV
 <Dec29-2009> <13:26:46>          + GGA-XC      -4.50405882 a.u.
 <Dec29-2009> <13:26:46>          + GGA-XC    -122.56167642 eV
 <Dec29-2009> <13:26:46>  NORMAL TERMINATION
 <Dec29-2009> <13:26:46>  END
 <Dec29-2009> <16:19:33>  DIRAC 2009.01  RunTime: Dec29-2009 16:19:33
 <Dec29-2009> <16:19:33>  NORMAL TERMINATION
 <Dec29-2009> <16:19:34>  END
 <Dec29-2009> <16:19:34>  ADF 2009.01  RunTime: Dec29-2009 16:19:34
 <Dec29-2009> <16:19:34>  Hydrogen (TZ2P)
 <Dec29-2009> <16:19:34>  RunType   : CREATE
 <Dec29-2009> <16:19:34>  Net Charge: 0 (Nuclei minus Electrons)
 <Dec29-2009> <16:19:34>  Symmetry  : ATOM
 <Dec29-2009> <16:19:34>  >>>> CORORT
 <Dec29-2009> <16:19:34>  >>>> FITINT
 <Dec29-2009> <16:19:34>  >>>> CLSMAT
 <Dec29-2009> <16:19:34>  >>>> ORTHON
 <Dec29-2009> <16:19:34>  >>>> GENPT
 <Dec29-2009> <16:19:34>  Acc.Num.Int.=  10.000
 <Dec29-2009> <16:19:34>  Block Length=  41
 <Dec29-2009> <16:19:34>  >>>> PTBAS
 <Dec29-2009> <16:19:34>  >>>> CYCLE
 <Dec29-2009> <16:19:34>    1
 <Dec29-2009> <16:19:34>    2  ErrMat   0.00333796  MaxEl -0.00317312
 <Dec29-2009> <16:19:34>    3  ErrMat   0.00120595  MaxEl  0.00120509
 <Dec29-2009> <16:19:34>    4  ErrMat   0.00004249  MaxEl  0.00003893
 <Dec29-2009> <16:19:34>    5  ErrMat   0.00000009  MaxEl -0.00000008
 <Dec29-2009> <16:19:34>    6  ErrMat   0.00000000  MaxEl  0.00000000
 <Dec29-2009> <16:19:34>  SCF converged
 <Dec29-2009> <16:19:34>    7  ErrMat   0.00000000  MaxEl  0.00000000
 <Dec29-2009> <16:19:34>   Solutions with partially occupied orbitals may not be
 <Dec29-2009> <16:19:34>   lowest in energy. You might consider lowering the
 <Dec29-2009> <16:19:34>   symmetry in the input and explicitly specifying integer
 <Dec29-2009> <16:19:34>   occupations. In that case always check that you obtain
 <Dec29-2009> <16:19:34>   an aufbau solution.
 <Dec29-2009> <16:19:34>  >>>> POPAN
 <Dec29-2009> <16:19:34>  >>>> DEBYE
 <Dec29-2009> <16:19:34>  NORMAL TERMINATION
 <Dec29-2009> <16:19:34>  END
 <Dec29-2009> <16:19:34>  DIRAC 2009.01  RunTime: Dec29-2009 16:19:34
 <Dec29-2009> <16:19:34>  NORMAL TERMINATION
 <Dec29-2009> <16:19:34>  END
 <Dec29-2009> <16:19:34>  ADF 2009.01  RunTime: Dec29-2009 16:19:34
 <Dec29-2009> <16:19:34>  Nitrogen (TZ2P, 1s frozen)
 <Dec29-2009> <16:19:34>  RunType   : CREATE
 <Dec29-2009> <16:19:34>  Net Charge: 0 (Nuclei minus Electrons)
 <Dec29-2009> <16:19:34>  Symmetry  : ATOM
 <Dec29-2009> <16:19:34>  >>>> CORORT
 <Dec29-2009> <16:19:34>  >>>> FITINT
 <Dec29-2009> <16:19:34>  >>>> CLSMAT
 <Dec29-2009> <16:19:34>  >>>> ORTHON
 <Dec29-2009> <16:19:34>  >>>> GENPT
 <Dec29-2009> <16:19:34>  Acc.Num.Int.=  10.000
 <Dec29-2009> <16:19:34>  Block Length=  52
 <Dec29-2009> <16:19:34>  >>>> PTBAS
 <Dec29-2009> <16:19:34>  >>>> CYCLE
 <Dec29-2009> <16:19:34>    1
 <Dec29-2009> <16:19:34>    2  ErrMat   0.01039358  MaxEl -0.00666423
 <Dec29-2009> <16:19:34>    3  ErrMat   0.01139170  MaxEl  0.00777523
 <Dec29-2009> <16:19:34>    4  ErrMat   0.00044219  MaxEl  0.00028966
 <Dec29-2009> <16:19:34>    5  ErrMat   0.00000524  MaxEl  0.00000345
 <Dec29-2009> <16:19:35>    6  ErrMat   0.00000000  MaxEl  0.00000000
 <Dec29-2009> <16:19:35>  SCF converged
 <Dec29-2009> <16:19:35>    7  ErrMat   0.00000000  MaxEl  0.00000000
 <Dec29-2009> <16:19:35>   Solutions with partially occupied orbitals may not be
 <Dec29-2009> <16:19:35>   lowest in energy. You might consider lowering the
 <Dec29-2009> <16:19:35>   symmetry in the input and explicitly specifying integer
 <Dec29-2009> <16:19:35>   occupations. In that case always check that you obtain
 <Dec29-2009> <16:19:35>   an aufbau solution.
 <Dec29-2009> <16:19:35>  >>>> POPAN
 <Dec29-2009> <16:19:35>  >>>> DEBYE
 <Dec29-2009> <16:19:35>  NORMAL TERMINATION
 <Dec29-2009> <16:19:35>  END
 <Dec29-2009> <16:19:35>  DIRAC 2009.01  RunTime: Dec29-2009 16:19:35
 <Dec29-2009> <16:19:35>  NORMAL TERMINATION
 <Dec29-2009> <16:19:35>  END
 <Dec29-2009> <16:19:35>  ADF 2009.01  RunTime: Dec29-2009 16:19:35
 <Dec29-2009> <16:19:35>  Carbon (TZ2P, 1s frozen)
 <Dec29-2009> <16:19:35>  RunType   : CREATE
 <Dec29-2009> <16:19:35>  Net Charge: 0 (Nuclei minus Electrons)
 <Dec29-2009> <16:19:35>  Symmetry  : ATOM
 <Dec29-2009> <16:19:35>  >>>> CORORT
 <Dec29-2009> <16:19:35>  >>>> FITINT
 <Dec29-2009> <16:19:35>  >>>> CLSMAT
 <Dec29-2009> <16:19:35>  >>>> ORTHON
 <Dec29-2009> <16:19:35>  >>>> GENPT
 <Dec29-2009> <16:19:35>  Acc.Num.Int.=  10.000
 <Dec29-2009> <16:19:35>  Block Length=  50
 <Dec29-2009> <16:19:35>  >>>> PTBAS
 <Dec29-2009> <16:19:35>  >>>> CYCLE
 <Dec29-2009> <16:19:35>    1
 <Dec29-2009> <16:19:35>    2  ErrMat   0.00190819  MaxEl -0.00141656
 <Dec29-2009> <16:19:35>    3  ErrMat   0.00192213  MaxEl  0.00153388
 <Dec29-2009> <16:19:35>    4  ErrMat   0.00014114  MaxEl  0.00010755
 <Dec29-2009> <16:19:35>    5  ErrMat   0.00000591  MaxEl -0.00000458
 <Dec29-2009> <16:19:35>    6  ErrMat   0.00000001  MaxEl  0.00000001
 <Dec29-2009> <16:19:35>  SCF converged
 <Dec29-2009> <16:19:35>    7  ErrMat   0.00000000  MaxEl  0.00000000
 <Dec29-2009> <16:19:35>   Solutions with partially occupied orbitals may not be
 <Dec29-2009> <16:19:35>   lowest in energy. You might consider lowering the
 <Dec29-2009> <16:19:35>   symmetry in the input and explicitly specifying integer
 <Dec29-2009> <16:19:35>   occupations. In that case always check that you obtain
 <Dec29-2009> <16:19:35>   an aufbau solution.
 <Dec29-2009> <16:19:35>  >>>> POPAN
 <Dec29-2009> <16:19:35>  >>>> DEBYE
 <Dec29-2009> <16:19:35>  NORMAL TERMINATION
 <Dec29-2009> <16:19:35>  END
 <Dec29-2009> <16:19:35>  DIRAC 2009.01  RunTime: Dec29-2009 16:19:35
 <Dec29-2009> <16:19:36>  NORMAL TERMINATION
 <Dec29-2009> <16:19:36>  END
 <Dec29-2009> <16:19:36>  ADF 2009.01  RunTime: Dec29-2009 16:19:36
 <Dec29-2009> <16:19:36>  Oxygen (TZ2P, 1s frozen)
 <Dec29-2009> <16:19:36>  RunType   : CREATE
 <Dec29-2009> <16:19:36>  Net Charge: 0 (Nuclei minus Electrons)
 <Dec29-2009> <16:19:36>  Symmetry  : ATOM
 <Dec29-2009> <16:19:36>  >>>> CORORT
 <Dec29-2009> <16:19:36>  >>>> FITINT
 <Dec29-2009> <16:19:36>  >>>> CLSMAT
 <Dec29-2009> <16:19:36>  >>>> ORTHON
 <Dec29-2009> <16:19:36>  >>>> GENPT
 <Dec29-2009> <16:19:36>  Acc.Num.Int.=  10.000
 <Dec29-2009> <16:19:36>  Block Length=  53
 <Dec29-2009> <16:19:36>  >>>> PTBAS
 <Dec29-2009> <16:19:36>  >>>> CYCLE
 <Dec29-2009> <16:19:36>    1
 <Dec29-2009> <16:19:36>    2  ErrMat   0.02564109  MaxEl -0.01392102
 <Dec29-2009> <16:19:36>    3  ErrMat   0.03146563  MaxEl  0.01775995
 <Dec29-2009> <16:19:36>    4  ErrMat   0.00079782  MaxEl  0.00042283
 <Dec29-2009> <16:19:36>    5  ErrMat   0.00000819  MaxEl  0.00000430
 <Dec29-2009> <16:19:36>    6  ErrMat   0.00000003  MaxEl  0.00000002
 <Dec29-2009> <16:19:36>    7  ErrMat   0.00000000  MaxEl  0.00000000
 <Dec29-2009> <16:19:36>  SCF converged
 <Dec29-2009> <16:19:36>    8  ErrMat   0.00000000  MaxEl  0.00000000
 <Dec29-2009> <16:19:36>   Solutions with partially occupied orbitals may not be
 <Dec29-2009> <16:19:36>   lowest in energy. You might consider lowering the
 <Dec29-2009> <16:19:36>   symmetry in the input and explicitly specifying integer
 <Dec29-2009> <16:19:36>   occupations. In that case always check that you obtain
 <Dec29-2009> <16:19:36>   an aufbau solution.
 <Dec29-2009> <16:19:36>  >>>> POPAN
 <Dec29-2009> <16:19:36>  >>>> DEBYE
 <Dec29-2009> <16:19:36>  NORMAL TERMINATION
 <Dec29-2009> <16:19:36>  END
 <Dec29-2009> <16:19:36>  ADF 2009.01  RunTime: Dec29-2009 16:19:36
 <Dec29-2009> <16:19:36>  mesityl nitrile oxide model
 <Dec29-2009> <16:19:36>  RunType   : SINGLE POINT
 <Dec29-2009> <16:19:36>  Net Charge: 0 (Nuclei minus Electrons)
 <Dec29-2009> <16:19:36>  Symmetry  : NOSYM
 <Dec29-2009> <16:19:36>  >>>> FRAGM
 <Dec29-2009> <16:19:36>  >>>> CORORT
 <Dec29-2009> <16:19:37>  >>>> FITINT
 <Dec29-2009> <16:19:41>  >>>> CLSMAT
 <Dec29-2009> <16:19:41>  >>>> ORTHON
 <Dec29-2009> <16:19:41>  >>>> GENPT
 <Dec29-2009> <16:19:41>  Acc.Num.Int.=   4.000
 <Dec29-2009> <16:19:42>  Block Length= 128
 <Dec29-2009> <16:19:43>  >>>> PTBAS
 <Dec29-2009> <16:20:15>  >>>> CYCLE
 <Dec29-2009> <16:20:22>    1
 <Dec29-2009> <16:20:32>    2  ErrMat   1.17055373  MaxEl -0.19126090
 <Dec29-2009> <16:20:42>    3  ErrMat   0.67294462  MaxEl -0.10072329
 <Dec29-2009> <16:20:52>    4  ErrMat   0.66369822  MaxEl -0.26174701
 <Dec29-2009> <16:21:02>    5  ErrMat   0.32398485  MaxEl  0.10304763
 <Dec29-2009> <16:21:14>    6  ErrMat   0.14591033  MaxEl -0.04337376
 <Dec29-2009> <16:21:24>    7  ErrMat   0.01777042  MaxEl -0.00289196
 <Dec29-2009> <16:21:34>    8  ErrMat   0.01112027  MaxEl -0.00238132
 <Dec29-2009> <16:21:44>    9  ErrMat   0.00422135  MaxEl -0.00090791
 <Dec29-2009> <16:21:54>   10  ErrMat   0.00117003  MaxEl -0.00025901
 <Dec29-2009> <16:22:03>   11  ErrMat   0.00042686  MaxEl -0.00009481
 <Dec29-2009> <16:22:14>   12  ErrMat   0.00004845  MaxEl -0.00001250
 <Dec29-2009> <16:22:23>   13  ErrMat   0.00003216  MaxEl  0.00000625
 <Dec29-2009> <16:22:33>   14  ErrMat   0.00000629  MaxEl -0.00000142
 <Dec29-2009> <16:22:43>   15  ErrMat   0.00000214  MaxEl -0.00000034
 <Dec29-2009> <16:22:43>  SCF converged
 <Dec29-2009> <16:22:53>   16  ErrMat   0.00000048  MaxEl  0.00000010
 <Dec29-2009> <16:22:58>  >>>> TOTEN
 <Dec29-2009> <16:23:43>  >>>> POPAN
 <Dec29-2009> <16:23:43>  >>>> DEBYE
 <Dec29-2009> <16:23:43>  >>>> AMETS
 <Dec29-2009> <16:23:44>   Bond Energy LDA      -4.64689966 a.u.
 <Dec29-2009> <16:23:44>   Bond Energy LDA    -126.44857339 eV
 <Dec29-2009> <16:23:44>           + GGA-X      -4.05874676 a.u.
 <Dec29-2009> <16:23:44>           + GGA-X    -110.44411868 eV
 <Dec29-2009> <16:23:44>          + GGA-XC      -4.50401098 a.u.
 <Dec29-2009> <16:23:44>          + GGA-XC    -122.56037460 eV
 <Dec29-2009> <16:23:44>  >>>> POPUL
 <Dec29-2009> <16:23:44>  NORMAL TERMINATION
 <Dec29-2009> <16:23:44>  END
NORMAL TERMINATION
