 vasp.5.2.8 07Jul10 complex 
 executed on             LinuxIFC date 2010.11.26  13:09:19
 running on    8 nodes
 distr:  one band on    1 nodes,    8 groups


--------------------------------------------------------------------------------------------------------


 INCAR:
 POTCAR:   PAW H 06May1998                        
 POTCAR:   PAW Al 17Apr2000                       
 POTCAR:   PAW H 06May1998                        
   VRHFIN =H: ultrasoft test                                                    
   LEXCH  = CA                                                                  
   EATOM  =    12.1334 eV,     .8918 Ry                                         
                                                                                
   TITEL  = PAW H 06May1998                                                     
   LULTRA =        F    use ultrasoft PP ?                                      
   IUNSCR =        0    unscreen: 0-lin 1-nonlin 2-no                           
   RPACOR =     .000    partial core radius                                     
   POMASS =    1.000; ZVAL   =    1.000    mass and valenz                      
   RCORE  =    1.100    outmost cutoff radius                                   
   RWIGS  =     .700; RWIGS  =     .370    wigner-seitz radius (au A)           
   ENMAX  =  250.000; ENMIN  =  200.000 eV                                      
   RCLOC  =     .701    cutoff for local pot                                    
   LCOR   =        T    correct aug charges                                     
   LPAW   =        T    paw PP                                                  
   EAUG   =  400.000                                                            
   RMAX   =    2.177    core radius for proj-oper                               
   RAUG   =    1.200    factor for augmentation sphere                          
   RDEP   =    1.112    core radius for depl-charge                             
   QCUT   =   -5.742; QGAM   =   11.483    optimization parameters              
                                                                                
   Description                                                                  
     l     E      TYP  RCUT    TYP  RCUT                                        
     0   .000     23  1.100                                                     
     0   .500     23  1.100                                                     
     1  -.300     23  1.100                                                     
  local pseudopotential read in
  atomic valenz-charges read in
  non local Contribution for L=           0  read in
    real space projection operators read in
  non local Contribution for L=           0  read in
    real space projection operators read in
  non local Contribution for L=           1  read in
    real space projection operators read in
    PAW grid and wavefunctions read in
 
   number of l-projection  operators is LMAX  =           3
   number of lm-projection operators is LMMAX =           5
 
 POTCAR:   PAW Al 17Apr2000                       
   VRHFIN =Al: s2p1                                                             
   LEXCH  = CA                                                                  
   EATOM  =    53.7936 eV,    3.9537 Ry                                         
                                                                                
   TITEL  = PAW Al 17Apr2000                                                    
   LULTRA =        F    use ultrasoft PP ?                                      
   IUNSCR =        1    unscreen: 0-lin 1-nonlin 2-no                           
   RPACOR =    1.500    partial core radius                                     
   POMASS =   26.982; ZVAL   =    3.000    mass and valenz                      
   RCORE  =    1.900    outmost cutoff radius                                   
   RWIGS  =    2.650; RWIGS  =    1.402    wigner-seitz radius (au A)           
   ENMAX  =  240.957; ENMIN  =  180.718 eV                                      
   ICORE  =        2    local potential                                         
   LCOR   =        T    correct aug charges                                     
   LPAW   =        T    paw PP                                                  
   EAUG   =  291.052                                                            
   DEXC   =    -.032                                                            
   RMAX   =    2.970    core radius for proj-oper                               
   RAUG   =    1.300    factor for augmentation sphere                          
   RDEP   =    1.966    core radius for depl-charge                             
   QCUT   =   -4.208; QGAM   =    8.417    optimization parameters              
                                                                                
   Description                                                                  
     l     E      TYP  RCUT    TYP  RCUT                                        
     0   .000     23  1.900                                                     
     0   .000     23  1.900                                                     
     1   .000     23  1.900                                                     
     1  1.000     23  1.900                                                     
     2   .000      7  1.900                                                     
  local pseudopotential read in
  partial core-charges read in
  atomic valenz-charges read in
  non local Contribution for L=           0  read in
    real space projection operators read in
  non local Contribution for L=           0  read in
    real space projection operators read in
  non local Contribution for L=           1  read in
    real space projection operators read in
  non local Contribution for L=           1  read in
    real space projection operators read in
    PAW grid and wavefunctions read in
 
   number of l-projection  operators is LMAX  =           4
   number of lm-projection operators is LMMAX =           8
 

 ----------------------------------------------------------------------------- 
|                                                                             |
|  ADVICE TO THIS USER RUNNING 'VASP/VAMP'   (HEAR YOUR MASTER'S VOICE ...):  |
|                                                                             |
|      You have a (more or less) 'small supercell' and for smaller cells      |
|      it is recommended  to use the reciprocal-space projection scheme!      |
|      The real space optimization is not  efficient for small cells and it   |
|      is also less accurate ...                                              |
|      Therefore set LREAL=.FALSE. in the  INCAR file                         |
|                                                                             |
 ----------------------------------------------------------------------------- 

 Optimization of the real space projectors (new method)

 maximal supplied QI-value         = 34.20
 optimisation between [QCUT,QGAM] = [ 16.08, 32.15] = [ 72.37,289.48] Ry 
 Optimized for a Real-space Cutoff    0.90 Angstroem

   l    n(q)    QCUT    max X(q) W(low)/X(q) W(high)/X(q)  e(spline) 
   0      9    16.076     4.546    0.14E-04    0.93E-05    0.18E-07
   0      9    16.076    17.114    0.52E-04    0.15E-03    0.10E-06
   1      8    16.076     4.672    0.15E-03    0.16E-03    0.15E-06
 Optimization of the real space projectors (new method)

 maximal supplied QI-value         = 19.84
 optimisation between [QCUT,QGAM] = [ 16.07, 32.34] = [ 72.34,292.92] Ry 
 Optimized for a Real-space Cutoff    1.04 Angstroem

   l    n(q)    QCUT    max X(q) W(low)/X(q) W(high)/X(q)  e(spline) 
   0     10    16.072    12.940    0.13E-04    0.74E-05    0.14E-07
   0     10    16.072   138.101    0.40E-04    0.88E-04    0.26E-06
   1     10    16.072     9.250    0.23E-04    0.14E-04    0.21E-07
   1     10    16.072    50.313    0.14E-03    0.14E-03    0.11E-06
 PAW H 06May1998                        :
 energy of atom  1       EATOM=  -12.1334
 kinetic energy error for atom=    0.0001 (will be added to EATOM!!)
 PAW Al 17Apr2000                       :
 energy of atom  2       EATOM=  -53.7936
 kinetic energy error for atom=    0.0001 (will be added to EATOM!!)
 
 
 POSCAR: 6H 2AL                                  
  positions in direct lattice
  velocities in cartesian coordinates
 exchange correlation table for  LEXCH =        2
   RHO(1)=    0.500       N(1)  =     2000
   RHO(2)=  100.500       N(2)  =     4000
 


--------------------------------------------------------------------------------------------------------


 ion  position               nearest neighbor table
   1  0.752  0.748  0.250-   8 1.96   7 1.96
   2  0.250  0.752  0.748-   8 1.96   7 1.96
   3  0.748  0.250  0.752-   8 1.96   7 1.96
   4  0.248  0.252  0.750-   7 1.96   8 1.96
   5  0.750  0.248  0.252-   8 1.96   7 1.96
   6  0.252  0.750  0.248-   8 1.96   7 1.96
   7  0.000  0.000  0.000-   4 1.96   5 1.96   6 1.96   2 1.96   3 1.96   1 1.96
   8  0.500  0.500  0.500-   6 1.96   5 1.96   2 1.96   4 1.96   1 1.96   3 1.96
 
  LATTYP: Found a trigonal (rhomboedric) cell.
 ALAT       =     5.5336638981
 COS(alpha) =     0.4972728444
  
  Lattice vectors:
  
 A1 = (   4.7097968736,  -0.1225028103,   2.9024524933)
 A2 = (   1.5600620396,   4.4456061370,   2.9024521779)
 A3 = (  -0.1776678556,  -0.1225030332,   5.5294543110)
 Subroutine PRICEL returns:
 Original cell was already a primitive cell.
 

Analysis of symmetry for initial positions (statically):

 Routine SETGRP: Setting up the symmetry group for a 
 trigonal (rhombohedral) supercell.


 Subroutine GETGRP returns: Found 12 space group operations
 (whereof  6 operations were pure point group operations)
 out of a pool of 12 trial point group operations.


The static configuration has the point symmetry S_6 .
 The point group associated with its full space group is D_3d.

Analysis of symmetry for dynamics (positions and initial velocities):

 Subroutine DYNSYM returns: Found 12 space group operations
 (whereof  6 operations were pure point group operations)
 out of a pool of 12 trial space group operations
 (whereof  6 operations were pure point group operations)
 and found also     1 'primitive' translations


The dynamic configuration has the point symmetry S_6 .
 The point group associated with its full space group is D_3d.
 
 
 KPOINTS: 1x1x1                                   

Automatic generation of k-mesh.
 
 Subroutine IBZKPT returns following result:
 ===========================================
 
 Found      1 irreducible k-points:
 
 Following reciprocal coordinates:
            Coordinates               Weight
  0.000000  0.000000  0.000000      1.000000
 
 Following cartesian coordinates:
            Coordinates               Weight
  0.000000  0.000000  0.000000      1.000000
 
 
 Subroutine IBZKPT_HF returns following result:
 ==============================================
 
 Found      1 k-points in 1st BZ
 the following      1 k-points will be used (e.g. in the exchange kernel)
 Following reciprocal coordinates:   # in IRBZ
  0.000000  0.000000  0.000000       1


--------------------------------------------------------------------------------------------------------




 Dimension of arrays:
   k-points           NKPTS =      1   k-points in BZ     NKDIM =      1   number of bands    NBANDS=     16
   number of dos      NEDOS =    301   number of ions     NIONS =      8
   non local maximal  LDIM  =      4   non local SUM 2l+1 LMDIM =      8
   total plane-waves  NPLWV = 216000
   max r-space proj   IRMAX =   8572   max aug-charges    IRDMAX=  70068
   dimension x,y,z NGX =    60 NGY =   60 NGZ =   60
   dimension x,y,z NGXF=   120 NGYF=  120 NGZF=  120
   support grid    NGXF=   120 NGYF=  120 NGZF=  120
   ions per type =               6   2
 NGX,Y,Z   is equivalent  to a cutoff of  18.03, 18.03, 18.03 a.u.
 NGXF,Y,Z  is equivalent  to a cutoff of  36.05, 36.05, 36.05 a.u.


 I would recommend the setting:
   dimension x,y,z NGX =    57 NGY =   57 NGZ =   57
 SYSTEM =  idruro di alluminio                     
 POSCAR =  6H 2AL                                  

 Startparameter for this run:
   NWRITE =      2    write-flag & timer
   PREC   = acc       medium, high low
   ISTART =      0    job   : 0-new  1-cont  2-samecut
   ICHARG =      2    charge: 1-file 2-atom 10-const
   ISPIN  =      1    spin polarized calculation?
   LNONCOLLINEAR =      F non collinear calculations
   LSORBIT =      F    spin-orbit coupling
   INIWAV =      1    electr: 0-lowe 1-rand  2-diag
   LASPH  =      F    aspherical Exc in radial PAW
   METAGGA=      F    non-selfconsistent MetaGGA calc.

 Electronic Relaxation 1
   ENCUT  = 1000.0 eV  73.50 Ry    8.57 a.u.  14.27 14.27 14.27*2*pi/ulx,y,z
   ENINI  = 1000.0     initial cutoff
   ENAUG  =  400.0 eV  augmentation charge cutoff
   NELM   =     60;   NELMIN=  2; NELMDL=-12     # of ELM steps 
   EDIFF  = 0.3E-09   stopping-criterion for ELM
   LREAL  =      T    real-space projection
   LCOMPAT=      F    compatible to vasp.4.4
   LREAL_COMPAT= F    compatible to vasp.4.5.1-3
   GGA_COMPAT  = T    GGA compatible to vasp.4.4-vasp.4.6
   LMAXPAW     = -100 max onsite density
   LMAXMIX     =    2 max onsite mixed and CHGCAR
   VOSKOWN=      0    Vosko Wilk Nusair interpolation
   ROPT   =   -0.00025  -0.00025
 Ionic relaxation
   EDIFFG = 0.3E-08   stopping-criterion for IOM
   NSW    =    100    number of steps for IOM
   NBLOCK =      1;   KBLOCK =    100    inner block; outer block 
   IBRION =      6    ionic relax: 0-MD 1-quasi-New 2-CG
   NFREE  =      2    steps in history (QN), initial steepest desc. (CG)
   ISIF   =      2    stress and relaxation
   IWAVPR =     11    prediction:  0-non 1-charg 2-wave 3-comb
   ISYM   =      2    0-nonsym 1-usesym 2-fastsym
   LCORR  =      T    Harris-Foulkes like correction to forces

   POTIM  = 0.0030    time-step for ionic-motion
   TEIN   =    0.0    initial temperature
   TEBEG  =    0.0;   TEEND  =   0.0 temperature during run
   SMASS  =  -3.00    Nose mass-parameter (am)
   estimated Nose-frequenzy (Omega)   =  0.10E-29 period in steps =****** mass=  -0.700E-27a.u.
   NPACO  =    256;   APACO  = 16.0  distance and # of slots for P.C.
   PSTRESS=    0.0 pullay stress

  Mass of Ions in am
   POMASS =   1.00 26.98
  Ionic Valenz
   ZVAL   =   1.00  3.00
  Atomic Wigner-Seitz radii
   RWIGS  =  -1.00 -1.00
  virtual crystal weights 
   VCA    =   1.00  1.00
   NELECT =      12.0000    total number of electrons
   NUPDOWN=      -1.0000    fix difference up-down

 DOS related values:
   EMIN   =  10.00;   EMAX   =-10.00  energy-range for DOS
   EFERMI =   0.00
   ISMEAR =     0;   SIGMA  =   0.10  broadening in eV -4-tet -1-fermi 0-gaus

 Electronic relaxation 2 (details)
   IALGO  =     48    algorithm
   LDIAG  =      T    sub-space diagonalisation (order eigenvalues)
   LSUBROT=      T    optimize rotation matrix (better conditioning)
   IMIX   =      4    mixing-type and parameters
     AMIX     =   0.40;   BMIX     =  1.00
     AMIX_MAG =   1.60;   BMIX_MAG =  1.00
     AMIN     =   0.10
     WC   =   100.;   INIMIX=   1;  MIXPRE=   1

 Intra band minimization:
   WEIMIN = 0.0010     energy-eigenvalue tresh-hold
   EBREAK =  0.62E-11  absolut break condition
   DEPER  =   0.30     relativ break condition  

   TIME   =   0.40     timestep for ELM

  volume/ion in A,a.u.               =      15.04       101.48
  Fermi-wavevector in a.u.,A,eV,Ry     =   0.759226  1.434729  7.842725  0.576424
  Thomas-Fermi vector in A             =   1.857973
 
 Write flags
   LWAVE  =      T    write WAVECAR
   LCHARG =      T    write CHGCAR
   LVTOT  =      F    write LOCPOT, total local potential
   LVHAR  =      F    write LOCPOT, Hartree potential only
   LELF   =      F    write electronic localiz. function (ELF)
   LORBIT =      0    0 simple, 1 ext, 2 COOP (PROOUT)


 Dipole corrections
   LMONO  =      F    monopole corrections only (constant potential shift)
   LDIPOL =      F    correct potential (dipole corrections)
   IDIPOL =      0    1-x, 2-y, 3-z, 4-all directions 
   EPSILON=  1.0000000 bulk dielectric constant

 Exchange correlation treatment:
   GGA     =    --    GGA type
   LEXCH   =     2    internal setting for exchange type
   VOSKOWN=      0    Vosko Wilk Nusair interpolation
   LHFCALC =     F    Hartree Fock is set to
   LHFONE  =     F    Hartree Fock one center treatment
   AEXX    =    0.0000 exact exchange contribution

 Linear response parameters
   LEPSILON=     F    determine dielectric tensor
   LRPA    =     F    only Hartree local field effects (RPA)
   LNABLA  =     F    use nabla operator in PAW spheres
   LVEL    =     F    velocity operator in full k-point grid
   LINTERFAST=   F  fast interpolation
   KINTER  =     0    interpolate to denser k-point grid
   CSHIFT  =0.1000    complex shift for real part using Kramers Kronig
   OMEGAMAX=  -1.0    maximum frequency
   RTIME   =    0.100 relaxation time in fs

 Orbital magnetization related:
   ORBITALMAG=     F  switch on orbital magnetization
   LCHIMAG   =     F  perturbation theory with respect to B field



--------------------------------------------------------------------------------------------------------


 finite differences with symmetry
 charge density and potential will be updated during run
 non-spin polarized calculation
 RMM-DIIS sequential band-by-band
 perform sub-space diagonalisation
    before iterative eigenvector-optimisation
 modified Broyden-mixing scheme, WC =      100.0
 initial mixing is a Kerker type mixing with AMIX =  0.4000 and BMIX =      1.0000
 Hartree-type preconditioning will be used
 using additional bands           10
 real space projection scheme for non local part
 use partial core corrections
 calculate Harris-corrections to forces 
   (improved forces if not selfconsistent)
 use of overlap-Matrix (Vanderbilt PP)
 Gauss-broadening in eV      SIGMA  =   0.10


--------------------------------------------------------------------------------------------------------


  energy-cutoff  :     1000.00
  volume of cell :      120.31
      direct lattice vectors                 reciprocal lattice vectors
     4.709796874 -0.122502810  2.902452493     0.207280003 -0.075988326  0.004976656
     1.560062040  4.445606137  2.902452178     0.002674933  0.220753345  0.004976658
    -0.177667856 -0.122503033  5.529454311    -0.110206937 -0.075988243  0.175625102

  length of vectors
     5.533662802  5.533663898  5.533664052     0.220825706  0.220825637  0.220825630


 
 k-points in units of 2pi/SCALE and weight: 1x1x1                                   
   0.00000000  0.00000000  0.00000000       1.000
 
 k-points in reciprocal lattice and weights: 1x1x1                                   
   0.00000000  0.00000000  0.00000000       1.000
 
 position of ions in fractional coordinates (direct lattice) 
   0.75157584  0.74842404  0.25000000
   0.24999991  0.75157590  0.74842404
   0.74842404  0.25000000  0.75157590
   0.24842407  0.25157587  0.74999994
   0.74999988  0.24842407  0.25157593
   0.25157596  0.74999994  0.24842406
   0.00000000  0.00000000  0.00000000
   0.49999994  0.49999997  0.50000000
 
 position of ions in cartesian coordinates  (Angst):
   4.66294052  3.20450260  5.73604173
   2.21698293  3.21890052  7.04540251
   3.78140984  0.92764716  7.05368287
   1.42924999  0.99609732  5.59831640
   3.87520710  0.98169967  4.28895562
   2.31078113  3.27295287  4.28067573
   0.00000000  0.00000000  0.00000000
   3.04609520  2.10030002  5.66717923
 


--------------------------------------------------------------------------------------------------------


 k-point  1 :  0.00000.00000.0000  plane waves:    8639

 maximum and minimum number of plane-waves per node :    8639   8639

 maximum number of plane-waves:    8639
 maximal index in each direction: 
   IXMAX= 14   IYMAX= 14   IZMAX= 14
   IXMIN=-14   IYMIN=-14   IZMIN=-14

 NGX is ok and might be reduce to  58
 NGY is ok and might be reduce to  58
 NGZ is ok and might be reduce to  58

 serial   3D FFT for wavefunctions
 parallel 3D FFT for charge:
    minimum data exchange during FFTs selected (reduces bandwidth)


 total amount of memory used by VASP on root node  63242. kBytes
========================================================================

   base      :    30000. kBytes
   nonlr-proj:     3744. kBytes
   fftplans  :     8259. kBytes
   grid      :    20937. kBytes
   one-center:       24. kBytes
   wavefun   :      278. kBytes
 
 Broyden mixing: mesh for mixing (old mesh)
   NGX = 29   NGY = 29   NGZ = 29
  (NGX  =120   NGY  =120   NGZ  =120)
  gives a total of  24389 points

 initial charge density was supplied:
 charge density of overlapping atoms calculated
 number of electron   12.0000000 magnetization 
 keeping initial charge density in first step


--------------------------------------------------------------------------------------------------------


 Maximum index for non-local projection operator         8295
 Maximum index for augmentation-charges         8545 (set IRDMAX)


--------------------------------------------------------------------------------------------------------


 First call to EWALD:  gamma=   0.359
 Maximum number of real-space cells 3x 3x 3
 Maximum number of reciprocal cells 3x 3x 3

    FEWALD:  cpu time    0.00: real time    0.00
   RESPFUN:  cpu time    0.00: real time    0.00


----------------------------------------- Iteration    1(   1)  ---------------------------------------


    POTLOK:  cpu time    0.20: real time    0.21
    SETDIJ:  cpu time    0.01: real time    0.01
    EDDIAG:  cpu time    0.12: real time    0.12
  RMM-DIIS:  cpu time    0.31: real time    0.31
    ORTHCH:  cpu time    0.00: real time    0.00
       DOS:  cpu time    0.00: real time    0.00
    --------------------------------------------
      LOOP:  cpu time    0.65: real time    0.67

 eigenvalue-minimisations  :    16
 total energy-change (2. order) : 0.5539187E+02  (-0.3127315E+03)
 number of electron   12.0000000 magnetization 
 augmentation part    12.0000000 magnetization 

 Free energy of the ion-electron system (eV)
  ---------------------------------------------------
  alpha Z        PSCENC =         1.20186203
  Ewald energy   TEWEN  =      -144.32190498
  -1/2 Hartree   DENC   =       -25.75696784
  -exchange  EXHF       =         0.00000000
  -V(xc)+E(xc)   XCENC  =       -38.37547866
  PAW double counting   =        75.22612161      -13.15527458
  entropy T*S    EENTRO =        -0.00009781
  eigenvalues    EBANDS =        20.18677753
  atomic energy  EATOM  =       180.38683500
  ---------------------------------------------------
  free energy    TOTEN  =        55.39187230 eV

  energy without entropy =       55.39197011  energy(sigma->0) =       55.39192121


--------------------------------------------------------------------------------------------------------




----------------------------------------- Iteration    1(   2)  ---------------------------------------


    EDDIAG:  cpu time    0.12: real time    0.12
  RMM-DIIS:  cpu time    0.30: real time    0.30
    ORTHCH:  cpu time    0.00: real time    0.00
       DOS:  cpu time    0.00: real time    0.00
    --------------------------------------------
      LOOP:  cpu time    0.43: real time    0.43

 eigenvalue-minimisations  :    16
 total energy-change (2. order) :-0.5673463E+02  (-0.5106101E+02)
 number of electron   12.0000000 magnetization 
 augmentation part    12.0000000 magnetization 

 Free energy of the ion-electron system (eV)
  ---------------------------------------------------
  alpha Z        PSCENC =         1.20186203
  Ewald energy   TEWEN  =      -144.32190498
  -1/2 Hartree   DENC   =       -25.75696784
  -exchange  EXHF       =         0.00000000
  -V(xc)+E(xc)   XCENC  =       -38.37547866
  PAW double counting   =        75.22612161      -13.15527458
  entropy T*S    EENTRO =        -0.11009918
  eigenvalues    EBANDS =       -36.43784979
  atomic energy  EATOM  =       180.38683500
  ---------------------------------------------------
  free energy    TOTEN  =        -1.34275639 eV

  energy without entropy =       -1.23265721  energy(sigma->0) =       -1.28770680


--------------------------------------------------------------------------------------------------------




----------------------------------------- Iteration    1(   3)  ---------------------------------------


    EDDIAG:  cpu time    0.12: real time    0.12
  RMM-DIIS:  cpu time    0.31: real time    0.31
    ORTHCH:  cpu time    0.00: real time    0.00
       DOS:  cpu time    0.00: real time    0.00
    --------------------------------------------
      LOOP:  cpu time    0.43: real time    0.44

 eigenvalue-minimisations  :    16
 total energy-change (2. order) :-0.1759646E+02  (-0.1094632E+02)
 number of electron   12.0000000 magnetization 
 augmentation part    12.0000000 magnetization 

 Free energy of the ion-electron system (eV)
  ---------------------------------------------------
  alpha Z        PSCENC =         1.20186203
  Ewald energy   TEWEN  =      -144.32190498
  -1/2 Hartree   DENC   =       -25.75696784
  -exchange  EXHF       =         0.00000000
  -V(xc)+E(xc)   XCENC  =       -38.37547866
  PAW double counting   =        75.22612161      -13.15527458
  entropy T*S    EENTRO =         0.00000000
  eigenvalues    EBANDS =       -54.14440413
  atomic energy  EATOM  =       180.38683500
  ---------------------------------------------------
  free energy    TOTEN  =       -18.93921154 eV

  energy without entropy =      -18.93921154  energy(sigma->0) =      -18.93921154


--------------------------------------------------------------------------------------------------------




----------------------------------------- Iteration    1(   4)  ---------------------------------------


    EDDIAG:  cpu time    0.12: real time    0.12
  RMM-DIIS:  cpu time    0.31: real time    0.31
    ORTHCH:  cpu time    0.00: real time    0.00
       DOS:  cpu time    0.00: real time    0.00
    --------------------------------------------
      LOOP:  cpu time    0.43: real time    0.43

 eigenvalue-minimisations  :    16
 total energy-change (2. order) :-0.3184327E+01  (-0.1945229E+01)
 number of electron   12.0000000 magnetization 
 augmentation part    12.0000000 magnetization 

 Free energy of the ion-electron system (eV)
  ---------------------------------------------------
  alpha Z        PSCENC =         1.20186203
  Ewald energy   TEWEN  =      -144.32190498
  -1/2 Hartree   DENC   =       -25.75696784
  -exchange  EXHF       =         0.00000000
  -V(xc)+E(xc)   XCENC  =       -38.37547866
  PAW double counting   =        75.22612161      -13.15527458
  entropy T*S    EENTRO =        -0.00000026
  eigenvalues    EBANDS =       -57.32873105
  atomic energy  EATOM  =       180.38683500
  ---------------------------------------------------
  free energy    TOTEN  =       -22.12353872 eV

  energy without entropy =      -22.12353846  energy(sigma->0) =      -22.12353859


--------------------------------------------------------------------------------------------------------




----------------------------------------- Iteration    1(   5)  ---------------------------------------


    EDDIAG:  cpu time    0.12: real time    0.12
  RMM-DIIS:  cpu time    0.30: real time    0.31
    ORTHCH:  cpu time    0.00: real time    0.00
       DOS:  cpu time    0.00: real time    0.00
    --------------------------------------------
      LOOP:  cpu time    0.43: real time    0.43

 eigenvalue-minimisations  :    16
 total energy-change (2. order) :-0.7059747E+00  (-0.2936656E+00)
 number of electron   12.0000000 magnetization 
 augmentation part    12.0000000 magnetization 

 Free energy of the ion-electron system (eV)
  ---------------------------------------------------
  alpha Z        PSCENC =         1.20186203
  Ewald energy   TEWEN  =      -144.32190498
  -1/2 Hartree   DENC   =       -25.75696784
  -exchange  EXHF       =         0.00000000
  -V(xc)+E(xc)   XCENC  =       -38.37547866
  PAW double counting   =        75.22612161      -13.15527458
  entropy T*S    EENTRO =        -0.14180911
  eigenvalues    EBANDS =       -57.89289691
  atomic energy  EATOM  =       180.38683500
  ---------------------------------------------------
  free energy    TOTEN  =       -22.82951343 eV

  energy without entropy =      -22.68770432  energy(sigma->0) =      -22.75860888


--------------------------------------------------------------------------------------------------------




----------------------------------------- Iteration    1(   6)  ---------------------------------------


    EDDIAG:  cpu time    0.12: real time    0.12
  RMM-DIIS:  cpu time    0.31: real time    0.31
    ORTHCH:  cpu time    0.00: real time    0.00
       DOS:  cpu time    0.00: real time    0.00
    --------------------------------------------
      LOOP:  cpu time    0.43: real time    0.44

 eigenvalue-minimisations  :    16
 total energy-change (2. order) :-0.1104448E+00  (-0.7825675E-01)
 number of electron   12.0000000 magnetization 
 augmentation part    12.0000000 magnetization 

 Free energy of the ion-electron system (eV)
  ---------------------------------------------------
  alpha Z        PSCENC =         1.20186203
  Ewald energy   TEWEN  =      -144.32190498
  -1/2 Hartree   DENC   =       -25.75696784
  -exchange  EXHF       =         0.00000000
  -V(xc)+E(xc)   XCENC  =       -38.37547866
  PAW double counting   =        75.22612161      -13.15527458
  entropy T*S    EENTRO =        -0.13226998
  eigenvalues    EBANDS =       -58.01288083
  atomic energy  EATOM  =       180.38683500
  ---------------------------------------------------
  free energy    TOTEN  =       -22.93995822 eV

  energy without entropy =      -22.80768824  energy(sigma->0) =      -22.87382323


--------------------------------------------------------------------------------------------------------




----------------------------------------- Iteration    1(   7)  ---------------------------------------


    EDDIAG:  cpu time    0.12: real time    0.12
  RMM-DIIS:  cpu time    0.30: real time    0.30
    ORTHCH:  cpu time    0.00: real time    0.00
       DOS:  cpu time    0.00: real time    0.00
    --------------------------------------------
      LOOP:  cpu time    0.42: real time    0.43

 eigenvalue-minimisations  :    16
 total energy-change (2. order) :-0.1721020E-01  (-0.1587144E-01)
 number of electron   12.0000000 magnetization 
 augmentation part    12.0000000 magnetization 

 Free energy of the ion-electron system (eV)
  ---------------------------------------------------
  alpha Z        PSCENC =         1.20186203
  Ewald energy   TEWEN  =      -144.32190498
  -1/2 Hartree   DENC   =       -25.75696784
  -exchange  EXHF       =         0.00000000
  -V(xc)+E(xc)   XCENC  =       -38.37547866
  PAW double counting   =        75.22612161      -13.15527458
  entropy T*S    EENTRO =        -0.13122643
  eigenvalues    EBANDS =       -58.03113457
  atomic energy  EATOM  =       180.38683500
  ---------------------------------------------------
  free energy    TOTEN  =       -22.95716842 eV

  energy without entropy =      -22.82594198  energy(sigma->0) =      -22.89155520


--------------------------------------------------------------------------------------------------------




----------------------------------------- Iteration    1(   8)  ---------------------------------------


    EDDIAG:  cpu time    0.12: real time    0.12
  RMM-DIIS:  cpu time    0.31: real time    0.31
    ORTHCH:  cpu time    0.00: real time    0.00
       DOS:  cpu time    0.00: real time    0.00
    --------------------------------------------
      LOOP:  cpu time    0.43: real time    0.43

 eigenvalue-minimisations  :    16
 total energy-change (2. order) :-0.3494540E-02  (-0.3406030E-02)
 number of electron   12.0000000 magnetization 
 augmentation part    12.0000000 magnetization 

 Free energy of the ion-electron system (eV)
  ---------------------------------------------------
  alpha Z        PSCENC =         1.20186203
  Ewald energy   TEWEN  =      -144.32190498
  -1/2 Hartree   DENC   =       -25.75696784
  -exchange  EXHF       =         0.00000000
  -V(xc)+E(xc)   XCENC  =       -38.37547866
  PAW double counting   =        75.22612161      -13.15527458
  entropy T*S    EENTRO =        -0.13117966
  eigenvalues    EBANDS =       -58.03467588
  atomic energy  EATOM  =       180.38683500
  ---------------------------------------------------
  free energy    TOTEN  =       -22.96066296 eV

  energy without entropy =      -22.82948330  energy(sigma->0) =      -22.89507313


--------------------------------------------------------------------------------------------------------




----------------------------------------- Iteration    1(   9)  ---------------------------------------


    EDDIAG:  cpu time    0.12: real time    0.12
  RMM-DIIS:  cpu time    0.56: real time    0.56
    ORTHCH:  cpu time    0.00: real time    0.00
       DOS:  cpu time    0.00: real time    0.00
    --------------------------------------------
      LOOP:  cpu time    0.69: real time    0.69

 eigenvalue-minimisations  :    33
 total energy-change (2. order) :-0.1134698E-02  (-0.1120466E-02)
 number of electron   12.0000000 magnetization 
 augmentation part    12.0000000 magnetization 

 Free energy of the ion-electron system (eV)
  ---------------------------------------------------
  alpha Z        PSCENC =         1.20186203
  Ewald energy   TEWEN  =      -144.32190498
  -1/2 Hartree   DENC   =       -25.75696784
  -exchange  EXHF       =         0.00000000
  -V(xc)+E(xc)   XCENC  =       -38.37547866
  PAW double counting   =        75.22612161      -13.15527458
  entropy T*S    EENTRO =        -0.13122250
  eigenvalues    EBANDS =       -58.03576774
  atomic energy  EATOM  =       180.38683500
  ---------------------------------------------------
  free energy    TOTEN  =       -22.96179766 eV

  energy without entropy =      -22.83057515  energy(sigma->0) =      -22.89618640


--------------------------------------------------------------------------------------------------------




----------------------------------------- Iteration    1(  10)  ---------------------------------------


    EDDIAG:  cpu time    0.12: real time    0.12
  RMM-DIIS:  cpu time    0.58: real time    0.58
    ORTHCH:  cpu time    0.00: real time    0.00
       DOS:  cpu time    0.00: real time    0.00
    --------------------------------------------
      LOOP:  cpu time    0.71: real time    0.71

 eigenvalue-minimisations  :    36
 total energy-change (2. order) :-0.1223289E-03  (-0.1219217E-03)
 number of electron   12.0000000 magnetization 
 augmentation part    12.0000000 magnetization 

 Free energy of the ion-electron system (eV)
  ---------------------------------------------------
  alpha Z        PSCENC =         1.20186203
  Ewald energy   TEWEN  =      -144.32190498
  -1/2 Hartree   DENC   =       -25.75696784
  -exchange  EXHF       =         0.00000000
  -V(xc)+E(xc)   XCENC  =       -38.37547866
  PAW double counting   =        75.22612161      -13.15527458
  entropy T*S    EENTRO =        -0.13123874
  eigenvalues    EBANDS =       -58.03587383
  atomic energy  EATOM  =       180.38683500
  ---------------------------------------------------
  free energy    TOTEN  =       -22.96191998 eV

  energy without entropy =      -22.83068125  energy(sigma->0) =      -22.89630062


--------------------------------------------------------------------------------------------------------




----------------------------------------- Iteration    1(  11)  ---------------------------------------


    EDDIAG:  cpu time    0.12: real time    0.12
  RMM-DIIS:  cpu time    0.56: real time    0.56
    ORTHCH:  cpu time    0.00: real time    0.00
       DOS:  cpu time    0.00: real time    0.00
    --------------------------------------------
      LOOP:  cpu time    0.68: real time    0.69

 eigenvalue-minimisations  :    34
 total energy-change (2. order) :-0.3295080E-05  (-0.3485902E-05)
 number of electron   12.0000000 magnetization 
 augmentation part    12.0000000 magnetization 

 Free energy of the ion-electron system (eV)
  ---------------------------------------------------
  alpha Z        PSCENC =         1.20186203
  Ewald energy   TEWEN  =      -144.32190498
  -1/2 Hartree   DENC   =       -25.75696784
  -exchange  EXHF       =         0.00000000
  -V(xc)+E(xc)   XCENC  =       -38.37547866
  PAW double counting   =        75.22612161      -13.15527458
  entropy T*S    EENTRO =        -0.13123844
  eigenvalues    EBANDS =       -58.03587742
  atomic energy  EATOM  =       180.38683500
  ---------------------------------------------------
  free energy    TOTEN  =       -22.96192328 eV

  energy without entropy =      -22.83068484  energy(sigma->0) =      -22.89630406


--------------------------------------------------------------------------------------------------------




----------------------------------------- Iteration    1(  12)  ---------------------------------------


    EDDIAG:  cpu time    0.12: real time    0.12
  RMM-DIIS:  cpu time    0.56: real time    0.56
    ORTHCH:  cpu time    0.00: real time    0.00
       DOS:  cpu time    0.00: real time    0.00
    CHARGE:  cpu time    0.18: real time    0.18
    MIXING:  cpu time    0.02: real time    0.02
    --------------------------------------------
      LOOP:  cpu time    0.88: real time    0.89

 eigenvalue-minimisations  :    33
 total energy-change (2. order) :-0.5250424E-06  (-0.5264963E-06)
 number of electron   11.9999999 magnetization 
 augmentation part     0.0614388 magnetization 

 Broyden mixing:
  rms(total) = 0.74368E+00    rms(broyden)= 0.74368E+00
  rms(prec ) = 0.16472E+01
  weight for this iteration     100.00

 Free energy of the ion-electron system (eV)
  ---------------------------------------------------
  alpha Z        PSCENC =         1.20186203
  Ewald energy   TEWEN  =      -144.32190498
  -1/2 Hartree   DENC   =       -25.75696784
  -exchange  EXHF       =         0.00000000
  -V(xc)+E(xc)   XCENC  =       -38.37547866
  PAW double counting   =        75.22612161      -13.15527458
  entropy T*S    EENTRO =        -0.13123841
  eigenvalues    EBANDS =       -58.03587798
  atomic energy  EATOM  =       180.38683500
  ---------------------------------------------------
  free energy    TOTEN  =       -22.96192380 eV

  energy without entropy =      -22.83068539  energy(sigma->0) =      -22.89630460


--------------------------------------------------------------------------------------------------------




----------------------------------------- Iteration    1(  13)  ---------------------------------------


    POTLOK:  cpu time    0.21: real time    0.21
    SETDIJ:  cpu time    0.01: real time    0.01
    EDDIAG:  cpu time    0.12: real time    0.12
  RMM-DIIS:  cpu time    0.52: real time    0.52
    ORTHCH:  cpu time    0.00: real time    0.00
       DOS:  cpu time    0.00: real time    0.00
    CHARGE:  cpu time    0.18: real time    0.18
    MIXING:  cpu time    0.02: real time    0.02
    --------------------------------------------
      LOOP:  cpu time    1.07: real time    1.07

 eigenvalue-minimisations  :    32
 total energy-change (2. order) : 0.7595331E+00  (-0.1142815E+00)
 number of electron   12.0000000 magnetization 
 augmentation part    -0.0347438 magnetization 

 Broyden mixing:
  rms(total) = 0.16778E+00    rms(broyden)= 0.16778E+00
  rms(prec ) = 0.49184E+00
  weight for this iteration     100.00

 eigenvalues of (default mixing * dielectric matrix)
  average eigenvalue GAMMA=   1.1157
  1.1157

 Free energy of the ion-electron system (eV)
  ---------------------------------------------------
  alpha Z        PSCENC =         1.20186203
  Ewald energy   TEWEN  =      -144.32190498
  -1/2 Hartree   DENC   =       -30.73825027
  -exchange  EXHF       =         0.00000000
  -V(xc)+E(xc)   XCENC  =       -37.16651489
  PAW double counting   =        78.63706183      -16.53041623
  entropy T*S    EENTRO =        -0.11283792
  eigenvalues    EBANDS =       -53.55822528
  atomic energy  EATOM  =       180.38683500
  ---------------------------------------------------
  free energy    TOTEN  =       -22.20239070 eV

  energy without entropy =      -22.08955278  energy(sigma->0) =      -22.14597174


--------------------------------------------------------------------------------------------------------




----------------------------------------- Iteration    1(  14)  ---------------------------------------


    POTLOK:  cpu time    0.21: real time    0.21
    SETDIJ:  cpu time    0.01: real time    0.01
    EDDIAG:  cpu time    0.12: real time    0.12
  RMM-DIIS:  cpu time    0.56: real time    0.57
    ORTHCH:  cpu time    0.00: real time    0.00
       DOS:  cpu time    0.00: real time    0.00
    CHARGE:  cpu time    0.18: real time    0.18
    MIXING:  cpu time    0.02: real time    0.02
    --------------------------------------------
      LOOP:  cpu time    1.12: real time    1.12

 eigenvalue-minimisations  :    33
 total energy-change (2. order) : 0.1199007E+00  (-0.6770071E-02)
 number of electron   12.0000000 magnetization 
 augmentation part    -0.0343286 magnetization 

 Broyden mixing:
  rms(total) = 0.95957E-01    rms(broyden)= 0.95957E-01
  rms(prec ) = 0.29773E+00
  weight for this iteration     100.00

 eigenvalues of (default mixing * dielectric matrix)
  average eigenvalue GAMMA=   1.7535
  1.0224  2.4845

 Free energy of the ion-electron system (eV)
  ---------------------------------------------------
  alpha Z        PSCENC =         1.20186203
  Ewald energy   TEWEN  =      -144.32190498
  -1/2 Hartree   DENC   =       -33.33139068
  -exchange  EXHF       =         0.00000000
  -V(xc)+E(xc)   XCENC  =       -36.79543995
  PAW double counting   =        81.02810066      -18.97243968
  entropy T*S    EENTRO =        -0.11283792
  eigenvalues    EBANDS =       -51.16527449
  atomic energy  EATOM  =       180.38683500
  ---------------------------------------------------
  free energy    TOTEN  =       -22.08249000 eV

  energy without entropy =      -21.96965208  energy(sigma->0) =      -22.02607104


--------------------------------------------------------------------------------------------------------




----------------------------------------- Iteration    1(  15)  ---------------------------------------


    POTLOK:  cpu time    0.21: real time    0.21
    SETDIJ:  cpu time    0.01: real time    0.01
    EDDIAG:  cpu time    0.12: real time    0.12
  RMM-DIIS:  cpu time    0.52: real time    0.52
    ORTHCH:  cpu time    0.00: real time    0.00
       DOS:  cpu time    0.00: real time    0.00
    CHARGE:  cpu time    0.18: real time    0.18
    MIXING:  cpu time    0.02: real time    0.02
    --------------------------------------------
      LOOP:  cpu time    1.07: real time    1.08

 eigenvalue-minimisations  :    32
 total energy-change (2. order) : 0.5627117E-01  (-0.8477322E-02)
 number of electron   12.0000000 magnetization 
 augmentation part    -0.0329537 magnetization 

 Broyden mixing:
  rms(total) = 0.17197E-01    rms(broyden)= 0.17197E-01
  rms(prec ) = 0.43039E-01
  weight for this iteration     100.00

 eigenvalues of (default mixing * dielectric matrix)
  average eigenvalue GAMMA=   2.1710
  1.0103  2.1080  3.3947

 Free energy of the ion-electron system (eV)
  ---------------------------------------------------
  alpha Z        PSCENC =         1.20186203
  Ewald energy   TEWEN  =      -144.32190498
  -1/2 Hartree   DENC   =       -37.40229057
  -exchange  EXHF       =         0.00000000
  -V(xc)+E(xc)   XCENC  =       -36.22017071
  PAW double counting   =        84.29590362      -22.31180748
  entropy T*S    EENTRO =        -0.11283792
  eigenvalues    EBANDS =       -47.54180782
  atomic energy  EATOM  =       180.38683500
  ---------------------------------------------------
  free energy    TOTEN  =       -22.02621883 eV

  energy without entropy =      -21.91338091  energy(sigma->0) =      -21.96979987


--------------------------------------------------------------------------------------------------------




----------------------------------------- Iteration    1(  16)  ---------------------------------------


    POTLOK:  cpu time    0.21: real time    0.21
    SETDIJ:  cpu time    0.01: real time    0.01
    EDDIAG:  cpu time    0.12: real time    0.12
  RMM-DIIS:  cpu time    0.54: real time    0.54
    ORTHCH:  cpu time    0.00: real time    0.00
       DOS:  cpu time    0.00: real time    0.00
    CHARGE:  cpu time    0.18: real time    0.18
    MIXING:  cpu time    0.02: real time    0.02
    --------------------------------------------
      LOOP:  cpu time    1.08: real time    1.09

 eigenvalue-minimisations  :    32
 total energy-change (2. order) :-0.5444303E-02  (-0.4952093E-03)
 number of electron   12.0000000 magnetization 
 augmentation part    -0.0327346 magnetization 

 Broyden mixing:
  rms(total) = 0.78530E-02    rms(broyden)= 0.78530E-02
  rms(prec ) = 0.21538E-01
  weight for this iteration     100.00

 eigenvalues of (default mixing * dielectric matrix)
  average eigenvalue GAMMA=   1.9524
  2.8300  2.8300  1.0063  1.1432

 Free energy of the ion-electron system (eV)
  ---------------------------------------------------
  alpha Z        PSCENC =         1.20186203
  Ewald energy   TEWEN  =      -144.32190498
  -1/2 Hartree   DENC   =       -38.08889128
  -exchange  EXHF       =         0.00000000
  -V(xc)+E(xc)   XCENC  =       -36.13809304
  PAW double counting   =        83.70295688      -21.70482841
  entropy T*S    EENTRO =        -0.11283792
  eigenvalues    EBANDS =       -46.95676142
  atomic energy  EATOM  =       180.38683500
  ---------------------------------------------------
  free energy    TOTEN  =       -22.03166313 eV

  energy without entropy =      -21.91882522  energy(sigma->0) =      -21.97524417


--------------------------------------------------------------------------------------------------------




----------------------------------------- Iteration    1(  17)  ---------------------------------------


    POTLOK:  cpu time    0.21: real time    0.21
    SETDIJ:  cpu time    0.01: real time    0.01
    EDDIAG:  cpu time    0.12: real time    0.12
  RMM-DIIS:  cpu time    0.53: real time    0.53
    ORTHCH:  cpu time    0.00: real time    0.00
       DOS:  cpu time    0.00: real time    0.00
    CHARGE:  cpu time    0.18: real time    0.18
    MIXING:  cpu time    0.02: real time    0.02
    --------------------------------------------
      LOOP:  cpu time    1.08: real time    1.09

 eigenvalue-minimisations  :    32
 total energy-change (2. order) : 0.2527419E-03  (-0.4168045E-04)
 number of electron   12.0000000 magnetization 
 augmentation part    -0.0328809 magnetization 

 Broyden mixing:
  rms(total) = 0.11934E-02    rms(broyden)= 0.11934E-02
  rms(prec ) = 0.25206E-02
  weight for this iteration     100.00

 eigenvalues of (default mixing * dielectric matrix)
  average eigenvalue GAMMA=   2.0602
  3.3597  1.0098  1.0195  2.6853  2.2265

 Free energy of the ion-electron system (eV)
  ---------------------------------------------------
  alpha Z        PSCENC =         1.20186203
  Ewald energy   TEWEN  =      -144.32190498
  -1/2 Hartree   DENC   =       -37.74539615
  -exchange  EXHF       =         0.00000000
  -V(xc)+E(xc)   XCENC  =       -36.18792457
  PAW double counting   =        83.42254537      -21.41805122
  entropy T*S    EENTRO =        -0.11283792
  eigenvalues    EBANDS =       -47.25653795
  atomic energy  EATOM  =       180.38683500
  ---------------------------------------------------
  free energy    TOTEN  =       -22.03141039 eV

  energy without entropy =      -21.91857247  energy(sigma->0) =      -21.97499143


--------------------------------------------------------------------------------------------------------




----------------------------------------- Iteration    1(  18)  ---------------------------------------


    POTLOK:  cpu time    0.21: real time    0.21
    SETDIJ:  cpu time    0.01: real time    0.01
    EDDIAG:  cpu time    0.12: real time    0.12
  RMM-DIIS:  cpu time    0.52: real time    0.52
    ORTHCH:  cpu time    0.00: real time    0.00
       DOS:  cpu time    0.00: real time    0.00
    CHARGE:  cpu time    0.18: real time    0.18
    MIXING:  cpu time    0.02: real time    0.02
    --------------------------------------------
      LOOP:  cpu time    1.08: real time    1.08

 eigenvalue-minimisations  :    32
 total energy-change (2. order) :-0.2443182E-04  (-0.1085008E-05)
 number of electron   12.0000000 magnetization 
 augmentation part    -0.0329188 magnetization 

 Broyden mixing:
  rms(total) = 0.39098E-03    rms(broyden)= 0.39098E-03
  rms(prec ) = 0.84149E-03
  weight for this iteration     100.00

 eigenvalues of (default mixing * dielectric matrix)
  average eigenvalue GAMMA=   1.9708
  3.4026  2.6500  2.6500  1.0010  1.0010  1.1203

 Free energy of the ion-electron system (eV)
  ---------------------------------------------------
  alpha Z        PSCENC =         1.20186203
  Ewald energy   TEWEN  =      -144.32190498
  -1/2 Hartree   DENC   =       -37.76650329
  -exchange  EXHF       =         0.00000000
  -V(xc)+E(xc)   XCENC  =       -36.18406814
  PAW double counting   =        83.47880380      -21.47537620
  entropy T*S    EENTRO =        -0.11283792
  eigenvalues    EBANDS =       -47.23824513
  atomic energy  EATOM  =       180.38683500
  ---------------------------------------------------
  free energy    TOTEN  =       -22.03143482 eV

  energy without entropy =      -21.91859691  energy(sigma->0) =      -21.97501586


--------------------------------------------------------------------------------------------------------




----------------------------------------- Iteration    1(  19)  ---------------------------------------


    POTLOK:  cpu time    0.20: real time    0.20
    SETDIJ:  cpu time    0.01: real time    0.01
    EDDIAG:  cpu time    0.12: real time    0.12
  RMM-DIIS:  cpu time    0.54: real time    0.54
    ORTHCH:  cpu time    0.00: real time    0.00
       DOS:  cpu time    0.00: real time    0.00
    CHARGE:  cpu time    0.18: real time    0.18
    MIXING:  cpu time    0.02: real time    0.02
    --------------------------------------------
      LOOP:  cpu time    1.08: real time    1.38

 eigenvalue-minimisations  :    32
 total energy-change (2. order) :-0.4512553E-06  (-0.2054783E-06)
 number of electron   12.0000000 magnetization 
 augmentation part    -0.0329273 magnetization 

 Broyden mixing:
  rms(total) = 0.12478E-03    rms(broyden)= 0.12478E-03
  rms(prec ) = 0.25015E-03
  weight for this iteration     100.00

 eigenvalues of (default mixing * dielectric matrix)
  average eigenvalue GAMMA=   2.0493
  3.4219  2.6978  2.6978  2.5368  1.0104  1.0007  0.9793

 Free energy of the ion-electron system (eV)
  ---------------------------------------------------
  alpha Z        PSCENC =         1.20186203
  Ewald energy   TEWEN  =      -144.32190498
  -1/2 Hartree   DENC   =       -37.78070654
  -exchange  EXHF       =         0.00000000
  -V(xc)+E(xc)   XCENC  =       -36.18174493
  PAW double counting   =        83.50922271      -21.50647430
  entropy T*S    EENTRO =        -0.11283792
  eigenvalues    EBANDS =       -47.22568635
  atomic energy  EATOM  =       180.38683500
  ---------------------------------------------------
  free energy    TOTEN  =       -22.03143527 eV

  energy without entropy =      -21.91859736  energy(sigma->0) =      -21.97501632


--------------------------------------------------------------------------------------------------------




----------------------------------------- Iteration    1(  20)  ---------------------------------------


    POTLOK:  cpu time    0.21: real time    0.21
    SETDIJ:  cpu time    0.01: real time    0.01
    EDDIAG:  cpu time    0.12: real time    0.12
  RMM-DIIS:  cpu time    0.52: real time    0.52
    ORTHCH:  cpu time    0.00: real time    0.00
       DOS:  cpu time    0.00: real time    0.00
    CHARGE:  cpu time    0.18: real time    0.18
    MIXING:  cpu time    0.02: real time    0.02
    --------------------------------------------
      LOOP:  cpu time    1.07: real time    1.08

 eigenvalue-minimisations  :    32
 total energy-change (2. order) : 0.3509322E-07  (-0.1254137E-07)
 number of electron   12.0000000 magnetization 
 augmentation part    -0.0329280 magnetization 

 Broyden mixing:
  rms(total) = 0.24145E-04    rms(broyden)= 0.24145E-04
  rms(prec ) = 0.46360E-04
  weight for this iteration     100.00

 eigenvalues of (default mixing * dielectric matrix)
  average eigenvalue GAMMA=   1.8586
  3.3946  2.7876  2.5978  2.5978  1.0168  0.9987  0.9771  0.4982

 Free energy of the ion-electron system (eV)
  ---------------------------------------------------
  alpha Z        PSCENC =         1.20186203
  Ewald energy   TEWEN  =      -144.32190498
  -1/2 Hartree   DENC   =       -37.77813963
  -exchange  EXHF       =         0.00000000
  -V(xc)+E(xc)   XCENC  =       -36.18230213
  PAW double counting   =        83.50114523      -21.49828976
  entropy T*S    EENTRO =        -0.11283792
  eigenvalues    EBANDS =       -47.22780309
  atomic energy  EATOM  =       180.38683500
  ---------------------------------------------------
  free energy    TOTEN  =       -22.03143524 eV

  energy without entropy =      -21.91859732  energy(sigma->0) =      -21.97501628


--------------------------------------------------------------------------------------------------------




----------------------------------------- Iteration    1(  21)  ---------------------------------------


    POTLOK:  cpu time    0.21: real time    0.21
    SETDIJ:  cpu time    0.01: real time    0.01
    EDDIAG:  cpu time    0.12: real time    0.12
  RMM-DIIS:  cpu time    0.52: real time    0.52
    ORTHCH:  cpu time    0.00: real time    0.00
       DOS:  cpu time    0.00: real time    0.00
    CHARGE:  cpu time    0.18: real time    0.18
    MIXING:  cpu time    0.02: real time    0.02
    --------------------------------------------
      LOOP:  cpu time    1.08: real time    1.08

 eigenvalue-minimisations  :    32
 total energy-change (2. order) :-0.1161965E-08  (-0.4884604E-09)
 number of electron   12.0000000 magnetization 
 augmentation part    -0.0329290 magnetization 

 Broyden mixing:
  rms(total) = 0.11303E-04    rms(broyden)= 0.11303E-04
  rms(prec ) = 0.22623E-04
  weight for this iteration     100.00

 eigenvalues of (default mixing * dielectric matrix)
  average eigenvalue GAMMA=   1.9809
  3.4391  2.8552  2.8552  2.4620  2.0185  1.0061  1.0112  0.9666  1.2144

 Free energy of the ion-electron system (eV)
  ---------------------------------------------------
  alpha Z        PSCENC =         1.20186203
  Ewald energy   TEWEN  =      -144.32190498
  -1/2 Hartree   DENC   =       -37.77788207
  -exchange  EXHF       =         0.00000000
  -V(xc)+E(xc)   XCENC  =       -36.18232511
  PAW double counting   =        83.50178765      -21.49894447
  entropy T*S    EENTRO =        -0.11283792
  eigenvalues    EBANDS =       -47.22802538
  atomic energy  EATOM  =       180.38683500
  ---------------------------------------------------
  free energy    TOTEN  =       -22.03143524 eV

  energy without entropy =      -21.91859732  energy(sigma->0) =      -21.97501628


--------------------------------------------------------------------------------------------------------




----------------------------------------- Iteration    1(  22)  ---------------------------------------


    POTLOK:  cpu time    0.21: real time    0.21
    SETDIJ:  cpu time    0.01: real time    0.01
    EDDIAG:  cpu time    0.12: real time    0.12
  RMM-DIIS:  cpu time    0.46: real time    0.46
    ORTHCH:  cpu time    0.00: real time    0.00
       DOS:  cpu time    0.00: real time    0.00
    CHARGE:  cpu time    0.18: real time    0.18
    MIXING:  cpu time    0.02: real time    0.02
    --------------------------------------------
      LOOP:  cpu time    1.01: real time    1.02

 eigenvalue-minimisations  :    28
 total energy-change (2. order) : 0.3498144E-09  (-0.1444644E-09)
 number of electron   12.0000000 magnetization 
 augmentation part    -0.0329296 magnetization 

 Broyden mixing:
  rms(total) = 0.17339E-05    rms(broyden)= 0.17339E-05
  rms(prec ) = 0.39314E-05
  weight for this iteration     100.00

 eigenvalues of (default mixing * dielectric matrix)
  average eigenvalue GAMMA=   1.8690
  3.3868  2.9224  2.5966  2.5966  2.0335  1.1241  0.9791  0.9791  1.0174  1.0545

 Free energy of the ion-electron system (eV)
  ---------------------------------------------------
  alpha Z        PSCENC =         1.20186203
  Ewald energy   TEWEN  =      -144.32190498
  -1/2 Hartree   DENC   =       -37.77808349
  -exchange  EXHF       =         0.00000000
  -V(xc)+E(xc)   XCENC  =       -36.18228272
  PAW double counting   =        83.50183208      -21.49898053
  entropy T*S    EENTRO =        -0.11283792
  eigenvalues    EBANDS =       -47.22787470
  atomic energy  EATOM  =       180.38683500
  ---------------------------------------------------
  free energy    TOTEN  =       -22.03143524 eV

  energy without entropy =      -21.91859732  energy(sigma->0) =      -21.97501628


--------------------------------------------------------------------------------------------------------




----------------------------------------- Iteration    1(  23)  ---------------------------------------


    POTLOK:  cpu time    0.21: real time    0.21
    SETDIJ:  cpu time    0.01: real time    0.01
    EDDIAG:  cpu time    0.12: real time    0.12
  RMM-DIIS:  cpu time    0.34: real time    0.33
    ORTHCH:  cpu time    0.00: real time    0.00
       DOS:  cpu time    0.00: real time    0.00
    --------------------------------------------
      LOOP:  cpu time    0.68: real time    0.68

 eigenvalue-minimisations  :    17
 total energy-change (2. order) : 0.4405365E-10  (-0.8411050E-12)
 number of electron   12.0000000 magnetization 
 augmentation part    -0.0329296 magnetization 

 Free energy of the ion-electron system (eV)
  ---------------------------------------------------
  alpha Z        PSCENC =         1.20186203
  Ewald energy   TEWEN  =      -144.32190498
  -1/2 Hartree   DENC   =       -37.77807615
  -exchange  EXHF       =         0.00000000
  -V(xc)+E(xc)   XCENC  =       -36.18228608
  PAW double counting   =        83.50186139      -21.49901192
  entropy T*S    EENTRO =        -0.11283792
  eigenvalues    EBANDS =       -47.22787660
  atomic energy  EATOM  =       180.38683500
  ---------------------------------------------------
  free energy    TOTEN  =       -22.03143524 eV

  energy without entropy =      -21.91859732  energy(sigma->0) =      -21.97501628


--------------------------------------------------------------------------------------------------------




 average (electrostatic) potential at core
  the test charge radii are     0.5201  1.0406
  (the norm of the test charge is              1.0000)
       1 -36.0317       2 -36.0317       3 -36.0317       4 -36.0317       5 -36.0317
       6 -36.0317       7 -78.2684       8 -78.2684
 
 
 
 E-fermi :  -1.6875     XC(G=0):  -6.9613     alpha+bet : -5.5009
   add alpha+bet to get absolut eigen values

 k-point   1 :       0.0000    0.0000    0.0000
  band No.  band energies     occupation 
      1      -8.1722      2.00000
      2      -3.8624      2.00000
      3      -3.8624      2.00000
      4      -3.8329      2.00000
      5      -2.1966      2.00000
      6      -1.6875      1.00000
      7      -1.6875      1.00000
      8       2.8593      0.00000
      9       2.8635      0.00000
     10       2.8635      0.00000
     11       4.0639      0.00000
     12       4.0639      0.00000
     13       4.0929      0.00000
     14       6.1282      0.00000
     15       7.1793      0.00000
     16      13.1272      0.00000


--------------------------------------------------------------------------------------------------------


 soft charge-density along one line, spin component           1
         0         1         2         3         4         5         6         7         8         9
 total charge-density along one line
 
 pseudopotential strength for first ion, spin component:           1
 -2.112  -0.001   0.000   0.000   0.000
 -0.001   0.044   0.000   0.000   0.000
  0.000   0.000  -0.350   0.000   0.001
  0.000   0.000   0.000  -0.350   0.000
  0.000   0.000   0.001   0.000  -0.349
 total augmentation occupancy for first ion, spin component:           1
  1.371  -0.240   0.000   0.000   0.000
 -0.240   0.058   0.000   0.000   0.000
  0.000   0.000   0.003   0.000   0.005
  0.000   0.000   0.000   0.000   0.000
  0.000   0.000   0.005   0.000   0.007


------------------------ aborting loop because EDIFF is reached ----------------------------------------




--------------------------------------------------------------------------------------------------------



  FREE ENERGIE OF THE ION-ELECTRON SYSTEM (eV)
  ---------------------------------------------------
  free  energy   TOTEN  =       -22.031435 eV

  energy  without entropy=      -21.918597  energy(sigma->0) =      -21.975016
 
    CHARGE:  cpu time    0.18: real time    0.18
    FORLOC:  cpu time    0.03: real time    0.03
    FORNL :  cpu time    0.32: real time    0.32
    STRESS:  cpu time    0.88: real time    0.88
    FORCOR:  cpu time    0.16: real time    0.16
    FORHAR:  cpu time    0.18: real time    0.18
    MIXING:  cpu time    0.02: real time    0.02

  FORCE on cell =-STRESS in cart. coord.  units (eV):
  Direction    XX          YY          ZZ          XY          YZ          ZX
  --------------------------------------------------------------------------------------
  Alpha Z     1.20186     1.20186     1.20186
  Ewald     -48.03860   -47.98265   -48.30088    -0.07347    -0.13671    -0.19829
  Hartree    12.60910    12.62245    12.54653    -0.01753    -0.03262    -0.04731
  E(xc)     -32.91451   -32.91472   -32.91356     0.00027     0.00050     0.00072
  Local     -38.61527   -38.68111   -38.30667     0.08645     0.16086     0.23332
  n-local    29.55387    29.55319    29.55707     0.00089     0.00167     0.00242
  augment    -2.57071    -2.57062    -2.57113    -0.00012    -0.00022    -0.00032
  Kinetic    78.89461    78.88202    78.95356     0.01652     0.03075     0.04457
  Fock        0.00000     0.00000     0.00000     0.00000     0.00000     0.00000
  -------------------------------------------------------------------------------------
  Total       0.12033     0.11043     0.16680     0.01302     0.02422     0.03512
  in kB       1.60254     1.47066     2.22131     0.17334     0.32249     0.46771
  external pressure =        1.76 kB  Pullay stress =        0.00 kB


 VOLUME and BASIS-vectors are now :
 -----------------------------------------------------------------------------
  energy-cutoff  :     1000.00
  volume of cell :      120.31
      direct lattice vectors                 reciprocal lattice vectors
     4.709796874 -0.122502810  2.902452493     0.207280003 -0.075988326  0.004976656
     1.560062040  4.445606137  2.902452178     0.002674933  0.220753345  0.004976658
    -0.177667856 -0.122503033  5.529454311    -0.110206937 -0.075988243  0.175625102

  length of vectors
     5.533662802  5.533663898  5.533664052     0.220825706  0.220825637  0.220825630


 FORCES acting on ions
    electron-ion (+dipol)            ewald-force                    non-local-force                 convergence-correction
 -----------------------------------------------------------------------------------------------
   -.464E-01 0.673E-01 0.186E-04   0.460E-01 -.667E-01 -.821E-06   -.456E-02 0.661E-02 -.456E-09   0.673E-08 -.101E-07 0.126E-10
   -.256E-01 -.673E-01 0.387E-01   0.254E-01 0.668E-01 -.384E-01   -.251E-02 -.661E-02 0.380E-02   0.250E-08 0.733E-08 -.588E-08
   0.720E-01 0.310E-05 -.387E-01   -.714E-01 -.180E-05 0.384E-01   0.707E-02 0.322E-09 -.380E-02   -.789E-08 0.576E-09 0.561E-08
   0.464E-01 -.672E-01 0.271E-04   -.460E-01 0.668E-01 -.210E-05   0.456E-02 -.661E-02 0.456E-09   -.671E-08 0.102E-07 -.453E-10
   0.256E-01 0.673E-01 -.387E-01   -.254E-01 -.668E-01 0.384E-01   0.251E-02 0.661E-02 -.380E-02   -.253E-08 -.731E-08 0.587E-08
   -.720E-01 0.136E-04 0.387E-01   0.714E-01 0.406E-05 -.384E-01   -.707E-02 -.322E-09 0.380E-02   0.789E-08 -.618E-09 -.560E-08
   0.173E-08 0.561E-07 -.811E-07   -.358E-05 -.477E-05 0.227E-05   0.265E-22 0.397E-22 0.000E+00   0.263E-09 0.104E-09 0.190E-09
   0.694E-06 0.337E-06 0.527E-06   0.228E-05 -.246E-05 0.688E-05   0.265E-22 0.215E-22 0.000E+00   -.290E-09 -.107E-09 -.236E-09
 -----------------------------------------------------------------------------------------------
   0.773E-04 0.297E-04 0.107E-03   -.350E-15 0.124E-14 0.590E-15   -.867E-18 0.212E-18 0.000E+00   -.416E-10 -.219E-11 -.718E-10
 
 
 POSITION                                       TOTAL-FORCE (eV/Angst)
 -----------------------------------------------------------------------------------
      4.66294      3.20450      5.73604        -0.004904      0.007112      0.000000
      2.21698      3.21890      7.04540        -0.002705     -0.007112      0.004090
      3.78141      0.92765      7.05368         0.007609      0.000000     -0.004090
      1.42925      0.99610      5.59832         0.004904     -0.007112      0.000000
      3.87521      0.98170      4.28896         0.002705      0.007112     -0.004090
      2.31078      3.27295      4.28068        -0.007609      0.000000      0.004090
      0.00000      0.00000      0.00000         0.000000      0.000000      0.000000
      3.04610      2.10030      5.66718         0.000000      0.000000      0.000000
 -----------------------------------------------------------------------------------
    total drift:                                0.000077      0.000030      0.000107


--------------------------------------------------------------------------------------------------------


    POTLOK:  cpu time    0.23: real time    0.23


--------------------------------------------------------------------------------------------------------


 
 
Found     3 degrees of freedom:
 
 
        Directions for atom     1:
        --------------------------
 
              1.0000000000000000      0.0000000000000000      0.0000000000000000
             -0.0000000000000001      0.0000000690501520      0.9999999999999977
 
 
        Directions for atom     7:
        --------------------------
 
              1.0000000000000000      0.0000000000000000      0.0000000000000000
 Finite differences:
   Step               POTIM =   3.000000000000000E-003
   Degrees of freedom DOF   =            3
  LATTYP: Found a trigonal (rhomboedric) cell.
 ALAT       =     5.5336638981
 COS(alpha) =     0.4972728444
  
  Lattice vectors:
  
 A1 = (   4.7097968736,  -0.1225028103,   2.9024524933)
 A2 = (   1.5600620396,   4.4456061370,   2.9024521779)
 A3 = (  -0.1776678556,  -0.1225030332,   5.5294543110)
 Subroutine PRICEL returns:
 Original cell was already a primitive cell.
 

Analysis of symmetry for initial positions (statically):

 Routine SETGRP: Setting up the symmetry group for a 
 trigonal (rhombohedral) supercell.


 Subroutine GETGRP returns: Found  1 space group operations
 (whereof  1 operations were pure point group operations)
 out of a pool of 12 trial point group operations.


The static configuration has the point symmetry C_1 .

Analysis of symmetry for dynamics (positions and initial velocities):

 Subroutine DYNSYM returns: Found  1 space group operations
 (whereof  1 operations were pure point group operations)
 out of a pool of  1 trial space group operations
 (whereof  1 operations were pure point group operations)
 and found also     1 'primitive' translations


The dynamic configuration has the point symmetry C_1 .
 
 KPOINTS: 1x1x1                                   

Automatic generation of k-mesh.
 
 Subroutine IBZKPT returns following result:
 ===========================================
 
 Found      1 irreducible k-points:
 
 Following reciprocal coordinates:
            Coordinates               Weight
  0.000000  0.000000  0.000000      1.000000
 
 Following cartesian coordinates:
            Coordinates               Weight
  0.000000  0.000000  0.000000      1.000000
 
    WAVPRE:  cpu time    0.08: real time    0.08
    FEWALD:  cpu time    0.00: real time    0.00
    ORTHCH:  cpu time    0.06: real time    0.06
     LOOP+:  cpu time   22.39: real time   22.98
   RESPFUN:  cpu time    0.00: real time    0.00


----------------------------------------- Iteration    2(   1)  ---------------------------------------


    POTLOK:  cpu time    0.22: real time    0.22
    SETDIJ:  cpu time    0.01: real time    0.01
    EDDIAG:  cpu time    0.12: real time    0.12
  RMM-DIIS:  cpu time    0.53: real time    0.53
    ORTHCH:  cpu time    0.00: real time    0.00
       DOS:  cpu time    0.00: real time    0.00
    CHARGE:  cpu time    0.13: real time    0.13
    MIXING:  cpu time    0.02: real time    0.02
    --------------------------------------------
      LOOP:  cpu time    1.04: real time    1.03

 eigenvalue-minimisations  :    32
 total energy-change (2. order) :-0.1860062E-04  (-0.2499998E-03)
 number of electron   12.0000000 magnetization 
 augmentation part    -0.0329248 magnetization 

 Broyden mixing:
  rms(total) = 0.23319E-02    rms(broyden)= 0.23319E-02
  rms(prec ) = 0.55244E-02
  weight for this iteration     100.00

 Free energy of the ion-electron system (eV)
  ---------------------------------------------------
  alpha Z        PSCENC =         1.20186203
  Ewald energy   TEWEN  =      -144.32196334
  -1/2 Hartree   DENC   =       -37.77800552
  -exchange  EXHF       =         0.00000000
  -V(xc)+E(xc)   XCENC  =       -36.18229474
  PAW double counting   =        83.50187702      -21.49902813
  entropy T*S    EENTRO =        -0.11283791
  eigenvalues    EBANDS =       -47.22789824
  atomic energy  EATOM  =       180.38683500
  ---------------------------------------------------
  free energy    TOTEN  =       -22.03145384 eV

  energy without entropy =      -21.91861593  energy(sigma->0) =      -21.97503488


--------------------------------------------------------------------------------------------------------




----------------------------------------- Iteration    2(   2)  ---------------------------------------


    POTLOK:  cpu time    0.21: real time    0.21
    SETDIJ:  cpu time    0.01: real time    0.01
    EDDIAG:  cpu time    0.12: real time    0.12
  RMM-DIIS:  cpu time    0.53: real time    0.53
    ORTHCH:  cpu time    0.00: real time    0.00
       DOS:  cpu time    0.00: real time    0.00
    CHARGE:  cpu time    0.13: real time    0.13
    MIXING:  cpu time    0.02: real time    0.02
    --------------------------------------------
      LOOP:  cpu time    1.02: real time    1.03

 eigenvalue-minimisations  :    32
 total energy-change (2. order) : 0.1231463E-04  (-0.1612627E-05)
 number of electron   12.0000000 magnetization 
 augmentation part    -0.0329259 magnetization 

 Broyden mixing:
  rms(total) = 0.11831E-02    rms(broyden)= 0.11831E-02
  rms(prec ) = 0.27225E-02
  weight for this iteration     100.00

 eigenvalues of (default mixing * dielectric matrix)
  average eigenvalue GAMMA=   1.9311
  1.9311

 Free energy of the ion-electron system (eV)
  ---------------------------------------------------
  alpha Z        PSCENC =         1.20186203
  Ewald energy   TEWEN  =      -144.32196334
  -1/2 Hartree   DENC   =       -37.77812085
  -exchange  EXHF       =         0.00000000
  -V(xc)+E(xc)   XCENC  =       -36.18226158
  PAW double counting   =        83.50190821      -21.49905594
  entropy T*S    EENTRO =        -0.11283791
  eigenvalues    EBANDS =       -47.22780715
  atomic energy  EATOM  =       180.38683500
  ---------------------------------------------------
  free energy    TOTEN  =       -22.03144153 eV

  energy without entropy =      -21.91860362  energy(sigma->0) =      -21.97502257


--------------------------------------------------------------------------------------------------------




----------------------------------------- Iteration    2(   3)  ---------------------------------------


    POTLOK:  cpu time    0.21: real time    0.21
    SETDIJ:  cpu time    0.01: real time    0.01
    EDDIAG:  cpu time    0.12: real time    0.12
  RMM-DIIS:  cpu time    0.52: real time    0.52
    ORTHCH:  cpu time    0.00: real time    0.00
       DOS:  cpu time    0.00: real time    0.00
    CHARGE:  cpu time    0.13: real time    0.13
    MIXING:  cpu time    0.02: real time    0.02
    --------------------------------------------
      LOOP:  cpu time    1.01: real time    1.02

 eigenvalue-minimisations  :    32
 total energy-change (2. order) : 0.3285724E-05  (-0.5173495E-06)
 number of electron   12.0000000 magnetization 
 augmentation part    -0.0329277 magnetization 

 Broyden mixing:
  rms(total) = 0.96835E-03    rms(broyden)= 0.96835E-03
  rms(prec ) = 0.26405E-02
  weight for this iteration     100.00

 eigenvalues of (default mixing * dielectric matrix)
  average eigenvalue GAMMA=   1.1056
  1.9575  0.2538

 Free energy of the ion-electron system (eV)
  ---------------------------------------------------
  alpha Z        PSCENC =         1.20186203
  Ewald energy   TEWEN  =      -144.32196334
  -1/2 Hartree   DENC   =       -37.77815647
  -exchange  EXHF       =         0.00000000
  -V(xc)+E(xc)   XCENC  =       -36.18224330
  PAW double counting   =        83.50190437      -21.49904988
  entropy T*S    EENTRO =        -0.11283722
  eigenvalues    EBANDS =       -47.22778943
  atomic energy  EATOM  =       180.38683500
  ---------------------------------------------------
  free energy    TOTEN  =       -22.03143824 eV

  energy without entropy =      -21.91860102  energy(sigma->0) =      -21.97501963


--------------------------------------------------------------------------------------------------------




----------------------------------------- Iteration    2(   4)  ---------------------------------------


    POTLOK:  cpu time    0.21: real time    0.21
    SETDIJ:  cpu time    0.01: real time    0.01
    EDDIAG:  cpu time    0.12: real time    0.12
  RMM-DIIS:  cpu time    0.52: real time    0.52
    ORTHCH:  cpu time    0.00: real time    0.00
       DOS:  cpu time    0.00: real time    0.00
    CHARGE:  cpu time    0.13: real time    0.13
    MIXING:  cpu time    0.02: real time    0.02
    --------------------------------------------
      LOOP:  cpu time    1.02: real time    1.02

 eigenvalue-minimisations  :    32
 total energy-change (2. order) : 0.7536568E-06  (-0.3646172E-07)
 number of electron   12.0000000 magnetization 
 augmentation part    -0.0329276 magnetization 

 Broyden mixing:
  rms(total) = 0.19677E-03    rms(broyden)= 0.19677E-03
  rms(prec ) = 0.50109E-03
  weight for this iteration     100.00

 eigenvalues of (default mixing * dielectric matrix)
  average eigenvalue GAMMA=   1.2293
  1.7331  1.7331  0.2218

 Free energy of the ion-electron system (eV)
  ---------------------------------------------------
  alpha Z        PSCENC =         1.20186203
  Ewald energy   TEWEN  =      -144.32196334
  -1/2 Hartree   DENC   =       -37.77815223
  -exchange  EXHF       =         0.00000000
  -V(xc)+E(xc)   XCENC  =       -36.18224451
  PAW double counting   =        83.50190357      -21.49904935
  entropy T*S    EENTRO =        -0.11283790
  eigenvalues    EBANDS =       -47.22779076
  atomic energy  EATOM  =       180.38683500
  ---------------------------------------------------
  free energy    TOTEN  =       -22.03143749 eV

  energy without entropy =      -21.91859958  energy(sigma->0) =      -21.97501853


--------------------------------------------------------------------------------------------------------




----------------------------------------- Iteration    2(   5)  ---------------------------------------


    POTLOK:  cpu time    0.21: real time    0.21
    SETDIJ:  cpu time    0.01: real time    0.01
    EDDIAG:  cpu time    0.12: real time    0.12
  RMM-DIIS:  cpu time    0.57: real time    0.57
    ORTHCH:  cpu time    0.00: real time    0.00
       DOS:  cpu time    0.00: real time    0.00
    CHARGE:  cpu time    0.13: real time    0.13
    MIXING:  cpu time    0.02: real time    0.02
    --------------------------------------------
      LOOP:  cpu time    1.07: real time    1.07

 eigenvalue-minimisations  :    33
 total energy-change (2. order) : 0.5601396E-07  (-0.5132430E-08)
 number of electron   12.0000000 magnetization 
 augmentation part    -0.0329274 magnetization 

 Broyden mixing:
  rms(total) = 0.63914E-04    rms(broyden)= 0.63914E-04
  rms(prec ) = 0.12841E-03
  weight for this iteration     100.00

 eigenvalues of (default mixing * dielectric matrix)
  average eigenvalue GAMMA=   1.3064
  0.2220  0.9285  2.2161  1.8588

 Free energy of the ion-electron system (eV)
  ---------------------------------------------------
  alpha Z        PSCENC =         1.20186203
  Ewald energy   TEWEN  =      -144.32196334
  -1/2 Hartree   DENC   =       -37.77811805
  -exchange  EXHF       =         0.00000000
  -V(xc)+E(xc)   XCENC  =       -36.18225381
  PAW double counting   =        83.50189577      -21.49904294
  entropy T*S    EENTRO =        -0.11283792
  eigenvalues    EBANDS =       -47.22781417
  atomic energy  EATOM  =       180.38683500
[...]
      2.310781  3.272953  4.280676    -0.285009    0.189687   -0.303740  
      0.000000  0.000000  0.000000    -0.022281   -0.044656    0.028525  
      3.046095  2.100300  5.667179    -0.022299   -0.044644    0.028530  
 
   3 f  =   29.666762 THz   186.401763 2PiTHz  989.576630 cm-1   122.691909 meV
             X         Y         Z           dx          dy          dz
      4.662941  3.204503  5.736042     0.315022    0.217195   -0.138779  
      2.216983  3.218901  7.045403    -0.289557    0.217238    0.186217  
      3.781410  0.927647  7.053683     0.100076   -0.347850    0.186164  
      1.429250  0.996097  5.598316     0.315022    0.217195   -0.138779  
      3.875207  0.981700  4.288956    -0.289557    0.217238    0.186217  
      2.310781  3.272953  4.280676     0.100076   -0.347850    0.186164  
      0.000000  0.000000  0.000000    -0.024416   -0.016839   -0.045433  
      3.046095  2.100300  5.667179    -0.024416   -0.016839   -0.045433  
 
   4 f  =   17.120989 THz   107.574345 2PiTHz  571.094695 cm-1    70.806743 meV
             X         Y         Z           dx          dy          dz
      4.662941  3.204503  5.736042     0.133247   -0.177297   -0.267606  
      2.216983  3.218901  7.045403    -0.139570   -0.405926    0.242404  
      3.781410  0.927647  7.053683    -0.167664    0.200404    0.260594  
      1.429250  0.996097  5.598316    -0.133247    0.177297    0.267606  
      3.875207  0.981700  4.288956     0.139570    0.405926   -0.242404  
      2.310781  3.272953  4.280676     0.167664   -0.200404   -0.260594  
      0.000000  0.000000  0.000000     0.000000    0.000000    0.000000  
      3.046095  2.100300  5.667179     0.000000    0.000000    0.000000  
 
   5 f  =   17.120986 THz   107.574330 2PiTHz  571.094615 cm-1    70.806733 meV
             X         Y         Z           dx          dy          dz
      4.662941  3.204503  5.736042    -0.246549    0.365591   -0.134497  
      2.216983  3.218901  7.045403     0.262910    0.017765    0.144491  
      3.781410  0.927647  7.053683    -0.409965   -0.131732    0.108297  
      1.429250  0.996097  5.598316     0.246549   -0.365591    0.134497  
      3.875207  0.981700  4.288956    -0.262910   -0.017765   -0.144491  
      2.310781  3.272953  4.280676     0.409965    0.131732   -0.108297  
      0.000000  0.000000  0.000000     0.000000    0.000000    0.000000  
      3.046095  2.100300  5.667179     0.000000    0.000000    0.000000  
 
   6 f  =   17.033911 THz   107.027222 2PiTHz  568.190108 cm-1    70.446620 meV
             X         Y         Z           dx          dy          dz
      4.662941  3.204503  5.736042    -0.003181   -0.002186    0.408228  
      2.216983  3.218901  7.045403     0.342236   -0.002192    0.222575  
      3.781410  0.927647  7.053683     0.119626    0.320648    0.222575  
      1.429250  0.996097  5.598316     0.003181    0.002186   -0.408228  
      3.875207  0.981700  4.288956    -0.342236    0.002192   -0.222575  
      2.310781  3.272953  4.280676    -0.119626   -0.320648   -0.222575  
      0.000000  0.000000  0.000000     0.000000    0.000000    0.000000  
      3.046095  2.100300  5.667179     0.000000    0.000000    0.000000  
 
   7 f  =   16.564953 THz   104.080667 2PiTHz  552.547325 cm-1    68.507162 meV
             X         Y         Z           dx          dy          dz
      4.662941  3.204503  5.736042    -0.022263   -0.268451    0.214875  
      2.216983  3.218901  7.045403    -0.145179   -0.357335    0.207208  
      3.781410  0.927647  7.053683    -0.202736   -0.265788    0.107312  
      1.429250  0.996097  5.598316    -0.022263   -0.268451    0.214875  
      3.875207  0.981700  4.288956    -0.145179   -0.357335    0.207208  
      2.310781  3.272953  4.280676    -0.202736   -0.265788    0.107312  
      0.000000  0.000000  0.000000     0.086991    0.208271   -0.123944  
      3.046095  2.100300  5.667179     0.086163    0.208769   -0.123684  
 
   8 f  =   16.564947 THz   104.080631 2PiTHz  552.547133 cm-1    68.507138 meV
             X         Y         Z           dx          dy          dz
      4.662941  3.204503  5.736042     0.294672   -0.264674   -0.116245  
      2.216983  3.218901  7.045403     0.288004   -0.120122    0.007252  
      3.781410  0.927647  7.053683     0.328155   -0.163434   -0.177404  
      1.429250  0.996097  5.598316     0.294672   -0.264674   -0.116245  
      3.875207  0.981700  4.288956     0.288004   -0.120122    0.007252  
      2.310781  3.272953  4.280676     0.328155   -0.163434   -0.177404  
      0.000000  0.000000  0.000000    -0.212856    0.128624    0.066741  
      3.046095  2.100300  5.667179    -0.213192    0.127814    0.067223  
 
   9 f  =   16.302567 THz   102.432052 2PiTHz  543.795099 cm-1    67.422024 meV
             X         Y         Z           dx          dy          dz
      4.662941  3.204503  5.736042    -0.101115   -0.069717   -0.367610  
      2.216983  3.218901  7.045403    -0.250818   -0.069718   -0.287145  
      3.781410  0.927647  7.053683    -0.154342   -0.209639   -0.287145  
      1.429250  0.996097  5.598316    -0.101115   -0.069717   -0.367610  
      3.875207  0.981700  4.288956    -0.250818   -0.069718   -0.287145  
      2.310781  3.272953  4.280676    -0.154342   -0.209639   -0.287145  
      0.000000  0.000000  0.000000     0.099966    0.068926    0.185981  
      3.046095  2.100300  5.667179     0.099966    0.068926    0.185981  
 
  10 f  =   15.515811 THz    97.488715 2PiTHz  517.551724 cm-1    64.168259 meV
             X         Y         Z           dx          dy          dz
      4.662941  3.204503  5.736042    -0.231739    0.336093    0.000015  
      2.216983  3.218901  7.045403    -0.127854   -0.336107    0.193288  
      3.781410  0.927647  7.053683     0.359587   -0.000014   -0.193289  
      1.429250  0.996097  5.598316     0.231739   -0.336093   -0.000015  
      3.875207  0.981700  4.288956     0.127854    0.336107   -0.193288  
      2.310781  3.272953  4.280676    -0.359587    0.000014    0.193289  
      0.000000  0.000000  0.000000     0.000000    0.000000    0.000000  
      3.046095  2.100300  5.667179     0.000000    0.000000    0.000000  
 
  11 f  =   15.496953 THz    97.370226 2PiTHz  516.922690 cm-1    64.090268 meV
             X         Y         Z           dx          dy          dz
      4.662941  3.204503  5.736042     0.068924   -0.125648    0.433832  
      2.216983  3.218901  7.045403    -0.105472   -0.246341    0.134555  
      3.781410  0.927647  7.053683    -0.257672   -0.336328   -0.147738  
      1.429250  0.996097  5.598316    -0.068924    0.125648   -0.433832  
      3.875207  0.981700  4.288956     0.105472    0.246341   -0.134555  
      2.310781  3.272953  4.280676     0.257672    0.336328    0.147738  
      0.000000  0.000000  0.000000     0.000000    0.000000    0.000000  
      3.046095  2.100300  5.667179     0.000000    0.000000    0.000000  
 
  12 f  =   15.496950 THz    97.370208 2PiTHz  516.922592 cm-1    64.090256 meV
             X         Y         Z           dx          dy          dz
      4.662941  3.204503  5.736042     0.156123   -0.212536   -0.234616  
      2.216983  3.218901  7.045403     0.416110   -0.016273    0.264573  
      3.781410  0.927647  7.053683     0.151408   -0.206874   -0.257444  
      1.429250  0.996097  5.598316    -0.156123    0.212536    0.234616  
      3.875207  0.981700  4.288956    -0.416110    0.016273   -0.264573  
      2.310781  3.272953  4.280676    -0.151408    0.206874    0.257444  
      0.000000  0.000000  0.000000     0.000000    0.000000    0.000000  
      3.046095  2.100300  5.667179     0.000000    0.000000    0.000000  
 
  13 f  =   12.326734 THz    77.451155 2PiTHz  411.175578 cm-1    50.979293 meV
             X         Y         Z           dx          dy          dz
      4.662941  3.204503  5.736042     0.231738   -0.336095    0.000016  
      2.216983  3.218901  7.045403     0.127857    0.336107   -0.193286  
      3.781410  0.927647  7.053683    -0.359595   -0.000013    0.193271  
      1.429250  0.996097  5.598316     0.231738   -0.336095    0.000016  
      3.875207  0.981700  4.288956     0.127857    0.336107   -0.193286  
      2.310781  3.272953  4.280676    -0.359595   -0.000013    0.193271  
      0.000000  0.000000  0.000000     0.000115    0.000079    0.000214  
      3.046095  2.100300  5.667179    -0.000115   -0.000079   -0.000214  
 
  14 f  =   12.295702 THz    77.256174 2PiTHz  410.140460 cm-1    50.850954 meV
             X         Y         Z           dx          dy          dz
      4.662941  3.204503  5.736042     0.084687   -0.092181   -0.451360  
      2.216983  3.218901  7.045403    -0.056481   -0.237123    0.156469  
      3.781410  0.927647  7.053683    -0.027277    0.331230    0.293678  
      1.429250  0.996097  5.598316     0.084687   -0.092181   -0.451360  
      3.875207  0.981700  4.288956    -0.056481   -0.237123    0.156469  
      2.310781  3.272953  4.280676    -0.027277    0.331230    0.293678  
      0.000000  0.000000  0.000000    -0.000238   -0.000794    0.000422  
      3.046095  2.100300  5.667179    -0.000457   -0.000648    0.000486  
 
  15 f  =   12.295701 THz    77.256165 2PiTHz  410.140411 cm-1    50.850948 meV
             X         Y         Z           dx          dy          dz
      4.662941  3.204503  5.736042     0.140666   -0.218626    0.215308  
      2.216983  3.218901  7.045403    -0.431601   -0.007680   -0.251170  
      3.781410  0.927647  7.053683     0.288945    0.227630    0.036440  
      1.429250  0.996097  5.598316     0.140666   -0.218626    0.215308  
      3.875207  0.981700  4.288956    -0.431601   -0.007680   -0.251170  
      2.310781  3.272953  4.280676     0.288945    0.227630    0.036440  
      0.000000  0.000000  0.000000     0.000796   -0.000389   -0.000283  
      3.046095  2.100300  5.667179     0.000694   -0.000602   -0.000150  
 
  16 f  =   11.513903 THz    72.343989 2PiTHz  384.062467 cm-1    47.617694 meV
             X         Y         Z           dx          dy          dz
      4.662941  3.204503  5.736042     0.336084    0.231731    0.003860  
      2.216983  3.218901  7.045403    -0.182200    0.231732    0.282436  
      3.781410  0.927647  7.053683     0.151809   -0.252686    0.282436  
      1.429250  0.996097  5.598316    -0.336084   -0.231731   -0.003860  
      3.875207  0.981700  4.288956     0.182200   -0.231732   -0.282436  
      2.310781  3.272953  4.280676    -0.151809    0.252686   -0.282436  
      0.000000  0.000000  0.000000     0.000000    0.000000    0.000000  
      3.046095  2.100300  5.667179     0.000000    0.000000    0.000000  
 
  17 f  =    5.920506 THz    37.199636 2PiTHz  197.486816 cm-1    24.485253 meV
             X         Y         Z           dx          dy          dz
      4.662941  3.204503  5.736042     0.000220   -0.000054   -0.000109  
      2.216983  3.218901  7.045403     0.000334   -0.000185   -0.000089  
      3.781410  0.927647  7.053683     0.000170   -0.000198   -0.000030  
      1.429250  0.996097  5.598316     0.000220   -0.000054   -0.000109  
      3.875207  0.981700  4.288956     0.000334   -0.000185   -0.000089  
      2.310781  3.272953  4.280676     0.000170   -0.000198   -0.000030  
      0.000000  0.000000  0.000000     0.240444    0.570974   -0.340845  
      3.046095  2.100300  5.667179    -0.236223   -0.573519    0.339520  
 
  18 f  =    5.920504 THz    37.199622 2PiTHz  197.486742 cm-1    24.485244 meV
             X         Y         Z           dx          dy          dz
      4.662941  3.204503  5.736042     0.000178    0.000234   -0.000202  
      2.216983  3.218901  7.045403     0.000070    0.000154   -0.000094  
      3.781410  0.927647  7.053683     0.000047    0.000322   -0.000126  
      1.429250  0.996097  5.598316     0.000178    0.000234   -0.000202  
      3.875207  0.981700  4.288956     0.000070    0.000154   -0.000094  
      2.310781  3.272953  4.280676     0.000047    0.000322   -0.000126  
      0.000000  0.000000  0.000000    -0.583871    0.354737    0.182362  
      3.046095  2.100300  5.667179     0.585592   -0.350606   -0.184817  
 
  19 f  =    4.685197 THz    29.437958 2PiTHz  156.281331 cm-1    19.376422 meV
             X         Y         Z           dx          dy          dz
      4.662941  3.204503  5.736042    -0.000084    0.000121    0.000000  
      2.216983  3.218901  7.045403    -0.000046   -0.000121    0.000070  
      3.781410  0.927647  7.053683     0.000130    0.000000   -0.000070  
      1.429250  0.996097  5.598316    -0.000084    0.000121    0.000000  
      3.875207  0.981700  4.288956    -0.000046   -0.000121    0.000070  
      2.310781  3.272953  4.280676     0.000130    0.000000   -0.000070  
      0.000000  0.000000  0.000000     0.318246    0.219432    0.592088  
      3.046095  2.100300  5.667179    -0.318246   -0.219432   -0.592088  
 
  20 f/i=    0.123475 THz     0.775819 2PiTHz    4.118697 cm-1     0.510654 meV
             X         Y         Z           dx          dy          dz
      4.662941  3.204503  5.736042    -0.059109   -0.040756   -0.110773  
      2.216983  3.218901  7.045403    -0.059778   -0.040756   -0.110413  
      3.781410  0.927647  7.053683    -0.059347   -0.041381   -0.110413  
      1.429250  0.996097  5.598316    -0.059109   -0.040756   -0.110773  
      3.875207  0.981700  4.288956    -0.059778   -0.040756   -0.110413  
      2.310781  3.272953  4.280676    -0.059347   -0.041381   -0.110413  
      0.000000  0.000000  0.000000    -0.301150   -0.207645   -0.560282  
      3.046095  2.100300  5.667179    -0.301150   -0.207645   -0.560282  
 
  21 f/i=    1.022926 THz     6.427233 2PiTHz   34.121136 cm-1     4.230483 meV
             X         Y         Z           dx          dy          dz
      4.662941  3.204503  5.736042     0.125456   -0.079379   -0.040566  
      2.216983  3.218901  7.045403     0.125475   -0.073231   -0.034931  
      3.781410  0.927647  7.053683     0.126815   -0.075221   -0.043105  
      1.429250  0.996097  5.598316     0.125456   -0.079379   -0.040566  
      3.875207  0.981700  4.288956     0.125475   -0.073231   -0.034931  
      2.310781  3.272953  4.280676     0.126815   -0.075221   -0.043105  
      0.000000  0.000000  0.000000     0.541642   -0.329268   -0.169102  
      3.046095  2.100300  5.667179     0.543364   -0.325133   -0.171561  
 
  22 f/i=    1.022926 THz     6.427236 2PiTHz   34.121149 cm-1     4.230485 meV
             X         Y         Z           dx          dy          dz
      4.662941  3.204503  5.736042     0.046984    0.121918   -0.075167  
      2.216983  3.218901  7.045403     0.052223    0.125707   -0.074504  
      3.781410  0.927647  7.053683     0.054759    0.122055   -0.070092  
      1.429250  0.996097  5.598316     0.046984    0.121918   -0.075167  
      3.875207  0.981700  4.288956     0.052223    0.125707   -0.074504  
      2.310781  3.272953  4.280676     0.054759    0.122055   -0.070092  
      0.000000  0.000000  0.000000     0.223233    0.529646   -0.316278  
      3.046095  2.100300  5.667179     0.219007    0.532194   -0.314951  
 
  23 f/i=   75.295183 THz   473.093590 2PiTHz 2511.576894 cm-1   311.395960 meV
             X         Y         Z           dx          dy          dz
      4.662941  3.204503  5.736042    -0.259309   -0.178735   -0.010604  
      2.216983  3.218901  7.045403    -0.245528    0.327071    0.406340  
      3.781410  0.927647  7.053683    -0.099073    0.156777   -0.184212  
      1.429250  0.996097  5.598316     0.259309    0.178735    0.010604  
      3.875207  0.981700  4.288956     0.245528   -0.327071   -0.406340  
      2.310781  3.272953  4.280676     0.099073   -0.156777    0.184212  
      0.000000  0.000000  0.000000     0.000000    0.000000    0.000000  
      3.046095  2.100300  5.667179     0.000000    0.000000    0.000000  
 
  24 f/i=   75.295187 THz   473.093612 2PiTHz 2511.577014 cm-1   311.395975 meV
             X         Y         Z           dx          dy          dz
      4.662941  3.204503  5.736042     0.398030    0.274483    0.016279  
      2.216983  3.218901  7.045403    -0.013191    0.017645    0.021833  
      3.781410  0.927647  7.053683    -0.194996    0.308750   -0.362842  
      1.429250  0.996097  5.598316    -0.398030   -0.274483   -0.016279  
      3.875207  0.981700  4.288956     0.013191   -0.017645   -0.021833  
      2.310781  3.272953  4.280676     0.194996   -0.308750    0.362842  
      0.000000  0.000000  0.000000     0.000000    0.000000    0.000000  
      3.046095  2.100300  5.667179     0.000000    0.000000    0.000000  
 


--------------------------------------------------------------------------------------------------------


  LATTYP: Found a trigonal (rhomboedric) cell.
 ALAT       =     5.5336638981
 COS(alpha) =     0.4972728444
  
  Lattice vectors:
  
 A1 = (   4.7097968736,  -0.1225028103,   2.9024524933)
 A2 = (   1.5600620396,   4.4456061370,   2.9024521779)
 A3 = (  -0.1776678556,  -0.1225030332,   5.5294543110)
 Subroutine PRICEL returns:
 Original cell was already a primitive cell.
 

Analysis of symmetry for initial positions (statically):

 Routine SETGRP: Setting up the symmetry group for a 
 trigonal (rhombohedral) supercell.


 Subroutine GETGRP returns: Found 12 space group operations
 (whereof  6 operations were pure point group operations)
 out of a pool of 12 trial point group operations.


The static configuration has the point symmetry S_6 .
 The point group associated with its full space group is D_3d.

Analysis of symmetry for dynamics (positions and initial velocities):

 Subroutine DYNSYM returns: Found 12 space group operations
 (whereof  6 operations were pure point group operations)
 out of a pool of 12 trial space group operations
 (whereof  6 operations were pure point group operations)
 and found also     1 'primitive' translations


The dynamic configuration has the point symmetry S_6 .
 The point group associated with its full space group is D_3d.
 
 KPOINTS: 1x1x1                                   

Automatic generation of k-mesh.
 
 Subroutine IBZKPT returns following result:
 ===========================================
 
 Found      1 irreducible k-points:
 
 Following reciprocal coordinates:
            Coordinates               Weight
  0.000000  0.000000  0.000000      1.000000
 
 Following cartesian coordinates:
            Coordinates               Weight
  0.000000  0.000000  0.000000      1.000000
 
 writing wavefunctions
     LOOP+:  cpu time   10.83: real time   10.88
    4ORBIT:  cpu time    0.00: real time    0.00

 total amount of memory used by VASP on root node  63242. kBytes
========================================================================

   base      :    30000. kBytes
   nonlr-proj:     3744. kBytes
   fftplans  :     8259. kBytes
   grid      :    20937. kBytes
   one-center:       24. kBytes
   wavefun   :      278. kBytes
 
  
  
 General timing and accounting informations for this job:
 ========================================================
  
                  Total CPU time used (sec):       87.029
                            User time (sec):       76.381
                          System time (sec):       10.649
                         Elapsed time (sec):       89.373
  
                   Maximum memory used (kb):           0.
                   Average memory used (kb):           0.
  
                          Minor page faults:      1135087
                          Major page faults:           49
                 Voluntary context switches:         3015
