 vasp.5.2.8 07Jul10 complex 
 executed on             LinuxIFC date 2010.07.05  17:41:03
 running on    8 nodes
 distr:  one band on    1 nodes,    8 groups


--------------------------------------------------------------------------------------------------------


 INCAR:
 POTCAR:   PAW_PBE C_h 20Dec2001                  
 POTCAR:   PAW_PBE O_h 20Dec2001                  
 POTCAR:   PAW_PBE C_h 20Dec2001                  
   VRHFIN =C: s2p2                                                              
   LEXCH  = PE                                                                  
   EATOM  =   147.1560 eV,   10.8157 Ry                                         
                                                                                
   TITEL  = PAW_PBE C_h 20Dec2001                                               
   LULTRA =        F    use ultrasoft PP ?                                      
   IUNSCR =        0    unscreen: 0-lin 1-nonlin 2-no                           
   RPACOR =     .000    partial core radius                                     
   POMASS =   12.011; ZVAL   =    4.000    mass and valenz                      
   RCORE  =    1.100    outmost cutoff radius                                   
   RWIGS  =    1.630; RWIGS  =     .863    wigner-seitz radius (au A)           
   ENMAX  =  700.000; ENMIN  =  500.000 eV                                      
   ICORE  =        2    local potential                                         
   LCOR   =        T    correct aug charges                                     
   LPAW   =        T    paw PP                                                  
   EAUG   =  946.768                                                            
   DEXC   =    -.002                                                            
   RMAX   =    1.693    core radius for proj-oper                               
   RAUG   =    1.300    factor for augmentation sphere                          
   RDEP   =    1.162    radius for radial grids                                 
   QCUT   =   -7.383; QGAM   =   14.767    optimization parameters              
                                                                                
   Description                                                                  
     l     E      TYP  RCUT    TYP  RCUT                                        
     0   .000     23  1.100                                                     
     0   .000     23  1.100                                                     
     1   .000     23  1.100                                                     
     1   .000     23  1.100                                                     
     2   .000      7  1.100                                                     
  local pseudopotential read in
  atomic valenz-charges read in
  non local Contribution for L=           0  read in
    real space projection operators read in
  non local Contribution for L=           0  read in
    real space projection operators read in
  non local Contribution for L=           1  read in
    real space projection operators read in
  non local Contribution for L=           1  read in
    real space projection operators read in
    PAW grid and wavefunctions read in
 
   number of l-projection  operators is LMAX  =           4
   number of lm-projection operators is LMMAX =           8
 
 POTCAR:   PAW_PBE O_h 20Dec2001                  
   VRHFIN =O: s2p4                                                              
   LEXCH  = PE                                                                  
   EATOM  =   432.3788 eV,   31.7789 Ry                                         
                                                                                
   TITEL  = PAW_PBE O_h 20Dec2001                                               
   LULTRA =        F    use ultrasoft PP ?                                      
   IUNSCR =        0    unscreen: 0-lin 1-nonlin 2-no                           
   RPACOR =     .000    partial core radius                                     
   POMASS =   16.000; ZVAL   =    6.000    mass and valenz                      
   RCORE  =    1.100    outmost cutoff radius                                   
   RWIGS  =    1.400; RWIGS  =     .741    wigner-seitz radius (au A)           
   ENMAX  =  700.000; ENMIN  =  500.000 eV                                      
   ICORE  =        2    local potential                                         
   LCOR   =        T    correct aug charges                                     
   LPAW   =        T    paw PP                                                  
   EAUG   =  888.804                                                            
   DEXC   =     .000                                                            
   RMAX   =    1.666    core radius for proj-oper                               
   RAUG   =    1.300    factor for augmentation sphere                          
   RDEP   =    1.125    radius for radial grids                                 
   QCUT   =   -7.501; QGAM   =   15.002    optimization parameters              
                                                                                
   Description                                                                  
     l     E      TYP  RCUT    TYP  RCUT                                        
     0   .000     23  1.100                                                     
     0   .000     23  1.100                                                     
     1   .000     23  1.100                                                     
     1   .000     23  1.100                                                     
     2   .000      7  1.100                                                     
  local pseudopotential read in
  atomic valenz-charges read in
  non local Contribution for L=           0  read in
    real space projection operators read in
  non local Contribution for L=           0  read in
    real space projection operators read in
  non local Contribution for L=           1  read in
    real space projection operators read in
  non local Contribution for L=           1  read in
    real space projection operators read in
    PAW grid and wavefunctions read in
 
   number of l-projection  operators is LMAX  =           4
   number of lm-projection operators is LMMAX =           8
 

 ----------------------------------------------------------------------------- 
|                                                                             |
|  ADVICE TO THIS USER RUNNING 'VASP/VAMP'   (HEAR YOUR MASTER'S VOICE ...):  |
|                                                                             |
|      You have a (more or less) 'small supercell' and for smaller cells      |
|      it is recommended  to use the reciprocal-space projection scheme!      |
|      The real space optimization is not  efficient for small cells and it   |
|      is also less accurate ...                                              |
|      Therefore set LREAL=.FALSE. in the  INCAR file                         |
|                                                                             |
 ----------------------------------------------------------------------------- 

 Optimization of the real space projectors (new method)

 maximal supplied QI-value         = 34.20
 optimisation between [QCUT,QGAM] = [ 13.34, 27.02] = [ 49.83,204.46] Ry 
 Optimized for a Real-space Cutoff    1.04 Angstroem

   l    n(q)    QCUT    max X(q) W(low)/X(q) W(high)/X(q)  e(spline) 
   0      8    13.340     5.574    0.35E-04    0.23E-04    0.45E-07
   0      8    13.340   107.025    0.70E-04    0.21E-03    0.27E-06
   1      8    13.340     2.524    0.82E-04    0.14E-03    0.23E-06
   1      8    13.340    65.672    0.20E-03    0.15E-03    0.33E-06
 Optimization of the real space projectors (new method)

 maximal supplied QI-value         = 34.20
 optimisation between [QCUT,QGAM] = [ 13.34, 27.02] = [ 49.83,204.46] Ry 
 Optimized for a Real-space Cutoff    0.98 Angstroem

   l    n(q)    QCUT    max X(q) W(low)/X(q) W(high)/X(q)  e(spline) 
   0      8    13.340     3.352    0.20E-04    0.31E-04    0.47E-07
   0      8    13.340   163.154    0.16E-03    0.35E-03    0.14E-06
   1      7    13.340     1.687    0.95E-04    0.10E-03    0.93E-07
   1      7    13.340    55.558    0.22E-03    0.27E-04    0.30E-06
 PAW_PBE C_h 20Dec2001                  :
 energy of atom  1       EATOM= -147.1560
 kinetic energy error for atom=    0.0286 (will be added to EATOM!!)
 PAW_PBE O_h 20Dec2001                  :
 energy of atom  2       EATOM= -432.3788
 kinetic energy error for atom=    0.1855 (will be added to EATOM!!)
 
 
 POSCAR: C 1   O 1                               
  positions in direct lattice
  velocities in cartesian coordinates
 exchange correlation table for  LEXCH =        8
   RHO(1)=    0.500       N(1)  =     2000
   RHO(2)=  100.500       N(2)  =     4000
 


--------------------------------------------------------------------------------------------------------


 ion  position               nearest neighbor table
   1  0.663  0.446  0.533-   2 1.14
   2  0.761  0.388  0.533-   1 1.14
 
  LATTYP: Found a simple cubic cell.
 ALAT       =    10.0000000000
  
  Lattice vectors:
  
 A1 = (  10.0000000000,   0.0000000000,   0.0000000000)
 A2 = (   0.0000000000,  10.0000000000,   0.0000000000)
 A3 = (   0.0000000000,   0.0000000000,  10.0000000000)
 Subroutine PRICEL returns:
 Original cell was already a primitive cell.
 

Analysis of symmetry for initial positions (statically):

 Routine SETGRP: Setting up the symmetry group for a 
 simple cubic supercell.


 Subroutine GETGRP returns: Found  2 space group operations
 (whereof  1 operations were pure point group operations)
 out of a pool of 48 trial point group operations.


The static configuration has the point symmetry C_1 .
 The point group associated with its full space group is C_1h.

Analysis of symmetry for dynamics (positions and initial velocities):

 Subroutine DYNSYM returns: Found  2 space group operations
 (whereof  1 operations were pure point group operations)
 out of a pool of  2 trial space group operations
 (whereof  1 operations were pure point group operations)
 and found also     1 'primitive' translations


The dynamic configuration has the point symmetry C_1 .
 The point group associated with its full space group is C_1h.
 
 
 KPOINTS: 1x1x1                                   

Automatic generation of k-mesh.
 
 Subroutine IBZKPT returns following result:
 ===========================================
 
 Found      1 irreducible k-points:
 
 Following reciprocal coordinates:
            Coordinates               Weight
  0.000000  0.000000  0.000000      1.000000
 
 Following cartesian coordinates:
            Coordinates               Weight
  0.000000  0.000000  0.000000      1.000000
 
 
 Subroutine IBZKPT_HF returns following result:
 ==============================================
 
 Found      1 k-points in 1st BZ
 the following      1 k-points will be used (e.g. in the exchange kernel)
 Following reciprocal coordinates:   # in IRBZ
  0.000000  0.000000  0.000000       1


--------------------------------------------------------------------------------------------------------




 Dimension of arrays:
   k-points           NKPTS =      1   k-points in BZ     NKDIM =      1   number of bands    NBANDS=     16
   number of dos      NEDOS =    301   number of ions     NIONS =      2
   non local maximal  LDIM  =      4   non local SUM 2l+1 LMDIM =      8
   total plane-waves  NPLWV = 729000
   max r-space proj   IRMAX =   3520   max aug-charges    IRDMAX=   5516
   dimension x,y,z NGX =    90 NGY =   90 NGZ =   90
   dimension x,y,z NGXF=   180 NGYF=  180 NGZF=  180
   support grid    NGXF=   180 NGYF=  180 NGZF=  180
   ions per type =               1   1
 NGX,Y,Z   is equivalent  to a cutoff of  14.96, 14.96, 14.96 a.u.
 NGXF,Y,Z  is equivalent  to a cutoff of  29.92, 29.92, 29.92 a.u.


 I would recommend the setting:
   dimension x,y,z NGX =    86 NGY =   86 NGZ =   86
 SYSTEM =  co                                      
 POSCAR =  C 1   O 1                               

 Startparameter for this run:
   NWRITE =      2    write-flag & timer
   PREC   = acc       medium, high low
   ISTART =      0    job   : 0-new  1-cont  2-samecut
   ICHARG =      2    charge: 1-file 2-atom 10-const
   ISPIN  =      1    spin polarized calculation?
   LNONCOLLINEAR =      F non collinear calculations
   LSORBIT =      F    spin-orbit coupling
   INIWAV =      1    electr: 0-lowe 1-rand  2-diag
   LASPH  =      F    aspherical Exc in radial PAW
   METAGGA=      F    non-selfconsistent MetaGGA calc.

 Electronic Relaxation 1
   ENCUT  =  700.0 eV  51.45 Ry    7.17 a.u.  21.57 21.57 21.57*2*pi/ulx,y,z
   ENINI  =  700.0     initial cutoff
   ENAUG  =  946.8 eV  augmentation charge cutoff
   NELM   =     60;   NELMIN=  2; NELMDL=-12     # of ELM steps 
   EDIFF  = 0.3E-09   stopping-criterion for ELM
   LREAL  =      T    real-space projection
   LCOMPAT=      F    compatible to vasp.4.4
   LREAL_COMPAT= F    compatible to vasp.4.5.1-3
   GGA_COMPAT  = T    GGA compatible to vasp.4.4-vasp.4.6
   LMAXPAW     = -100 max onsite density
   LMAXMIX     =    2 max onsite mixed and CHGCAR
   VOSKOWN=      0    Vosko Wilk Nusair interpolation
   ROPT   =   -0.00025  -0.00025
 Ionic relaxation
   EDIFFG = 0.3E-08   stopping-criterion for IOM
   NSW    =     61    number of steps for IOM
   NBLOCK =      1;   KBLOCK =      1    inner block; outer block 
   IBRION =      6    ionic relax: 0-MD 1-quasi-New 2-CG
   NFREE  =      2    steps in history (QN), initial steepest desc. (CG)
   ISIF   =      2    stress and relaxation
   IWAVPR =     11    prediction:  0-non 1-charg 2-wave 3-comb
   ISYM   =      2    0-nonsym 1-usesym 2-fastsym
   LCORR  =      T    Harris-Foulkes like correction to forces

   POTIM  = 0.0030    time-step for ionic-motion
   TEIN   =    0.0    initial temperature
   TEBEG  =    0.0;   TEEND  =   0.0 temperature during run
   SMASS  =  -3.00    Nose mass-parameter (am)
   estimated Nose-frequenzy (Omega)   =  0.10E-29 period in steps =****** mass=  -0.229E-26a.u.
   NPACO  =    256;   APACO  = 16.0  distance and # of slots for P.C.
   PSTRESS=    0.0 pullay stress

  Mass of Ions in am
   POMASS =  12.01 16.00
  Ionic Valenz
   ZVAL   =   4.00  6.00
  Atomic Wigner-Seitz radii
   RWIGS  =  -1.00 -1.00
  virtual crystal weights 
   VCA    =   1.00  1.00
   NELECT =      10.0000    total number of electrons
   NUPDOWN=      -1.0000    fix difference up-down

 DOS related values:
   EMIN   =  10.00;   EMAX   =-10.00  energy-range for DOS
   EFERMI =   0.00
   ISMEAR =     0;   SIGMA  =   0.10  broadening in eV -4-tet -1-fermi 0-gaus

 Electronic relaxation 2 (details)
   IALGO  =     48    algorithm
   LDIAG  =      T    sub-space diagonalisation (order eigenvalues)
   LSUBROT=      T    optimize rotation matrix (better conditioning)
   IMIX   =      4    mixing-type and parameters
     AMIX     =   0.40;   BMIX     =  1.00
     AMIX_MAG =   1.60;   BMIX_MAG =  1.00
     AMIN     =   0.10
     WC   =   100.;   INIMIX=   1;  MIXPRE=   1

 Intra band minimization:
   WEIMIN = 0.0010     energy-eigenvalue tresh-hold
   EBREAK =  0.76E-11  absolut break condition
   DEPER  =   0.30     relativ break condition  

   TIME   =   0.40     timestep for ELM

  volume/ion in A,a.u.               =     500.00      3374.17
  Fermi-wavevector in a.u.,A,eV,Ry     =   0.352702  0.666511  1.692549  0.124399
  Thomas-Fermi vector in A             =   1.266362
 
 Write flags
   LWAVE  =      T    write WAVECAR
   LCHARG =      T    write CHGCAR
   LVTOT  =      F    write LOCPOT, total local potential
   LVHAR  =      F    write LOCPOT, Hartree potential only
   LELF   =      F    write electronic localiz. function (ELF)
   LORBIT =      0    0 simple, 1 ext, 2 COOP (PROOUT)


 Dipole corrections
   LMONO  =      F    monopole corrections only (constant potential shift)
   LDIPOL =      F    correct potential (dipole corrections)
   IDIPOL =      0    1-x, 2-y, 3-z, 4-all directions 
   EPSILON=  1.0000000 bulk dielectric constant

 Exchange correlation treatment:
   GGA     =    --    GGA type
   LEXCH   =     8    internal setting for exchange type
   VOSKOWN=      0    Vosko Wilk Nusair interpolation
   LHFCALC =     F    Hartree Fock is set to
   LHFONE  =     F    Hartree Fock one center treatment
   AEXX    =    0.0000 exact exchange contribution

 Linear response parameters
   LEPSILON=     F    determine dielectric tensor
   LRPA    =     F    only Hartree local field effects (RPA)
   LNABLA  =     F    use nabla operator in PAW spheres
   LVEL    =     F    velocity operator in full k-point grid
   LINTERFAST=   F  fast interpolation
   KINTER  =     0    interpolate to denser k-point grid
   CSHIFT  =0.1000    complex shift for real part using Kramers Kronig
   OMEGAMAX=  -1.0    maximum frequency
   RTIME   =    0.100 relaxation time in fs

 Orbital magnetization related:
   ORBITALMAG=     F  switch on orbital magnetization
   LCHIMAG   =     F  perturbation theory with respect to B field



--------------------------------------------------------------------------------------------------------


 finite differences with symmetry
 charge density and potential will be updated during run
 non-spin polarized calculation
 RMM-DIIS sequential band-by-band
 perform sub-space diagonalisation
    before iterative eigenvector-optimisation
 modified Broyden-mixing scheme, WC =      100.0
 initial mixing is a Kerker type mixing with AMIX =  0.4000 and BMIX =      1.0000
 Hartree-type preconditioning will be used
 using additional bands           11
 real space projection scheme for non local part
 calculate Harris-corrections to forces 
   (improved forces if not selfconsistent)
 use gradient corrections 
 use of overlap-Matrix (Vanderbilt PP)
 Gauss-broadening in eV      SIGMA  =   0.10


--------------------------------------------------------------------------------------------------------


  energy-cutoff  :      700.00
  volume of cell :     1000.00
      direct lattice vectors                 reciprocal lattice vectors
    10.000000000  0.000000000  0.000000000     0.100000000  0.000000000  0.000000000
     0.000000000 10.000000000  0.000000000     0.000000000  0.100000000  0.000000000
     0.000000000  0.000000000 10.000000000     0.000000000  0.000000000  0.100000000

  length of vectors
    10.000000000 10.000000000 10.000000000     0.100000000  0.100000000  0.100000000


 
 k-points in units of 2pi/SCALE and weight: 1x1x1                                   
   0.00000000  0.00000000  0.00000000       1.000
 
 k-points in reciprocal lattice and weights: 1x1x1                                   
   0.00000000  0.00000000  0.00000000       1.000
 
 position of ions in fractional coordinates (direct lattice) 
   0.66345842  0.44624367  0.53333300
   0.76103258  0.38817433  0.53333300
 
 position of ions in cartesian coordinates  (Angst):
   6.63458424  4.46243667  5.33333000
   7.61032576  3.88174333  5.33333000
 


--------------------------------------------------------------------------------------------------------


 k-point  1 :  0.00000.00000.0000  plane waves:   42115

 maximum and minimum number of plane-waves per node :   42115  42115

 maximum number of plane-waves:   42115
 maximal index in each direction: 
   IXMAX= 21   IYMAX= 21   IZMAX= 21
   IXMIN=-21   IYMIN=-21   IZMIN=-21

 NGX is ok and might be reduce to  86
 NGY is ok and might be reduce to  86
 NGZ is ok and might be reduce to  86

 serial   3D FFT for wavefunctions
 parallel 3D FFT for charge:
    minimum data exchange during FFTs selected (reduces bandwidth)


 total amount of memory used by VASP on root node 131398. kBytes
========================================================================

   base      :    30000. kBytes
   nonlr-proj:      554. kBytes
   fftplans  :    28138. kBytes
   grid      :    71352. kBytes
   one-center:        6. kBytes
   wavefun   :     1348. kBytes
 
 Broyden mixing: mesh for mixing (old mesh)
   NGX = 43   NGY = 43   NGZ = 43
  (NGX  =180   NGY  =180   NGZ  =180)
  gives a total of  79507 points

 initial charge density was supplied:
 charge density of overlapping atoms calculated
 number of electron   10.0000000 magnetization 
 keeping initial charge density in first step


--------------------------------------------------------------------------------------------------------


 Maximum index for non-local projection operator         3370
 Maximum index for augmentation-charges          666 (set IRDMAX)


--------------------------------------------------------------------------------------------------------


 First call to EWALD:  gamma=   0.177
 Maximum number of real-space cells 3x 3x 3
 Maximum number of reciprocal cells 3x 3x 3

    FEWALD:  cpu time    0.00: real time    0.00
   RESPFUN:  cpu time    0.00: real time    0.00


----------------------------------------- Iteration    1(   1)  ---------------------------------------


    POTLOK:  cpu time    2.98: real time    2.98
    SETDIJ:  cpu time    0.00: real time    0.00
    EDDIAG:  cpu time    0.53: real time    0.53
  RMM-DIIS:  cpu time    1.22: real time    1.22
    ORTHCH:  cpu time    0.02: real time    0.02
       DOS:  cpu time    0.00: real time    0.00
    --------------------------------------------
      LOOP:  cpu time    4.75: real time    4.78

 eigenvalue-minimisations  :    16
 total energy-change (2. order) : 0.1433991E+03  (-0.1236527E+03)
 number of electron   10.0000000 magnetization 
 augmentation part    10.0000000 magnetization 

 Free energy of the ion-electron system (eV)
  ---------------------------------------------------
  alpha Z        PSCENC =         0.28152496
  Ewald energy   TEWEN  =       101.01608887
  -1/2 Hartree   DENC   =      -560.45143552
  -exchange  EXHF       =         0.00000000
  -V(xc)+E(xc)   XCENC  =        39.81681377
  PAW double counting   =       157.18045909     -161.29511202
  entropy T*S    EENTRO =        -0.00000001
  eigenvalues    EBANDS =       -12.47005189
  atomic energy  EATOM  =       579.32078282
  ---------------------------------------------------
  free energy    TOTEN  =       143.39907007 eV

  energy without entropy =      143.39907008  energy(sigma->0) =      143.39907007


--------------------------------------------------------------------------------------------------------




----------------------------------------- Iteration    1(   2)  ---------------------------------------


    EDDIAG:  cpu time    0.53: real time    0.53
  RMM-DIIS:  cpu time    1.21: real time    1.21
    ORTHCH:  cpu time    0.02: real time    0.02
       DOS:  cpu time    0.00: real time    0.00
    --------------------------------------------
      LOOP:  cpu time    1.77: real time    1.77

 eigenvalue-minimisations  :    16
 total energy-change (2. order) :-0.2163067E+02  (-0.3208760E+02)
 number of electron   10.0000000 magnetization 
 augmentation part    10.0000000 magnetization 

 Free energy of the ion-electron system (eV)
  ---------------------------------------------------
  alpha Z        PSCENC =         0.28152496
  Ewald energy   TEWEN  =       101.01608887
  -1/2 Hartree   DENC   =      -560.45143552
  -exchange  EXHF       =         0.00000000
  -V(xc)+E(xc)   XCENC  =        39.81681377
  PAW double counting   =       157.18045909     -161.29511202
  entropy T*S    EENTRO =        -0.00011973
  eigenvalues    EBANDS =       -34.10060565
  atomic energy  EATOM  =       579.32078282
  ---------------------------------------------------
  free energy    TOTEN  =       121.76839659 eV

  energy without entropy =      121.76851631  energy(sigma->0) =      121.76845645


--------------------------------------------------------------------------------------------------------




----------------------------------------- Iteration    1(   3)  ---------------------------------------


    EDDIAG:  cpu time    0.53: real time    0.53
  RMM-DIIS:  cpu time    1.22: real time    1.22
    ORTHCH:  cpu time    0.02: real time    0.02
       DOS:  cpu time    0.00: real time    0.00
    --------------------------------------------
      LOOP:  cpu time    1.77: real time    1.77

 eigenvalue-minimisations  :    16
 total energy-change (2. order) :-0.3439015E+02  (-0.2980447E+02)
 number of electron   10.0000000 magnetization 
 augmentation part    10.0000000 magnetization 

 Free energy of the ion-electron system (eV)
  ---------------------------------------------------
  alpha Z        PSCENC =         0.28152496
  Ewald energy   TEWEN  =       101.01608887
  -1/2 Hartree   DENC   =      -560.45143552
  -exchange  EXHF       =         0.00000000
  -V(xc)+E(xc)   XCENC  =        39.81681377
  PAW double counting   =       157.18045909     -161.29511202
  entropy T*S    EENTRO =        -0.00856010
  eigenvalues    EBANDS =       -68.48231683
  atomic energy  EATOM  =       579.32078282
  ---------------------------------------------------
  free energy    TOTEN  =        87.37824503 eV

  energy without entropy =       87.38680514  energy(sigma->0) =       87.38252508


--------------------------------------------------------------------------------------------------------




----------------------------------------- Iteration    1(   4)  ---------------------------------------


    EDDIAG:  cpu time    0.53: real time    0.53
  RMM-DIIS:  cpu time    1.22: real time    1.22
    ORTHCH:  cpu time    0.02: real time    0.02
       DOS:  cpu time    0.00: real time    0.00
    --------------------------------------------
      LOOP:  cpu time    1.76: real time    1.77

 eigenvalue-minimisations  :    16
 total energy-change (2. order) :-0.4241752E+02  (-0.3518377E+02)
 number of electron   10.0000000 magnetization 
 augmentation part    10.0000000 magnetization 

 Free energy of the ion-electron system (eV)
  ---------------------------------------------------
  alpha Z        PSCENC =         0.28152496
  Ewald energy   TEWEN  =       101.01608887
  -1/2 Hartree   DENC   =      -560.45143552
  -exchange  EXHF       =         0.00000000
  -V(xc)+E(xc)   XCENC  =        39.81681377
  PAW double counting   =       157.18045909     -161.29511202
  entropy T*S    EENTRO =         0.00000000
  eigenvalues    EBANDS =      -110.90839411
  atomic energy  EATOM  =       579.32078282
  ---------------------------------------------------
  free energy    TOTEN  =        44.96072786 eV

  energy without entropy =       44.96072786  energy(sigma->0) =       44.96072786


--------------------------------------------------------------------------------------------------------




----------------------------------------- Iteration    1(   5)  ---------------------------------------


    EDDIAG:  cpu time    0.53: real time    0.53
  RMM-DIIS:  cpu time    1.24: real time    1.24
    ORTHCH:  cpu time    0.02: real time    0.02
       DOS:  cpu time    0.00: real time    0.00
    --------------------------------------------
      LOOP:  cpu time    1.80: real time    1.79

 eigenvalue-minimisations  :    16
 total energy-change (2. order) :-0.2844849E+02  (-0.2644697E+02)
 number of electron   10.0000000 magnetization 
 augmentation part    10.0000000 magnetization 

 Free energy of the ion-electron system (eV)
  ---------------------------------------------------
  alpha Z        PSCENC =         0.28152496
  Ewald energy   TEWEN  =       101.01608887
  -1/2 Hartree   DENC   =      -560.45143552
  -exchange  EXHF       =         0.00000000
  -V(xc)+E(xc)   XCENC  =        39.81681377
  PAW double counting   =       157.18045909     -161.29511202
  entropy T*S    EENTRO =         0.00000000
  eigenvalues    EBANDS =      -139.35688590
  atomic energy  EATOM  =       579.32078282
  ---------------------------------------------------
  free energy    TOTEN  =        16.51223606 eV

  energy without entropy =       16.51223606  energy(sigma->0) =       16.51223606


--------------------------------------------------------------------------------------------------------




----------------------------------------- Iteration    1(   6)  ---------------------------------------


    EDDIAG:  cpu time    0.53: real time    0.53
  RMM-DIIS:  cpu time    1.23: real time    1.23
    ORTHCH:  cpu time    0.02: real time    0.02
       DOS:  cpu time    0.00: real time    0.00
    --------------------------------------------
      LOOP:  cpu time    1.78: real time    1.78

 eigenvalue-minimisations  :    16
 total energy-change (2. order) :-0.2279773E+02  (-0.1928707E+02)
 number of electron   10.0000000 magnetization 
 augmentation part    10.0000000 magnetization 

 Free energy of the ion-electron system (eV)
  ---------------------------------------------------
  alpha Z        PSCENC =         0.28152496
  Ewald energy   TEWEN  =       101.01608887
  -1/2 Hartree   DENC   =      -560.45143552
  -exchange  EXHF       =         0.00000000
  -V(xc)+E(xc)   XCENC  =        39.81681377
  PAW double counting   =       157.18045909     -161.29511202
  entropy T*S    EENTRO =         0.00000000
  eigenvalues    EBANDS =      -162.15461583
  atomic energy  EATOM  =       579.32078282
  ---------------------------------------------------
  free energy    TOTEN  =        -6.28549387 eV

  energy without entropy =       -6.28549387  energy(sigma->0) =       -6.28549387


--------------------------------------------------------------------------------------------------------




----------------------------------------- Iteration    1(   7)  ---------------------------------------


    EDDIAG:  cpu time    0.53: real time    0.53
  RMM-DIIS:  cpu time    1.21: real time    1.21
    ORTHCH:  cpu time    0.02: real time    0.02
       DOS:  cpu time    0.00: real time    0.00
    --------------------------------------------
      LOOP:  cpu time    1.76: real time    1.76

 eigenvalue-minimisations  :    16
 total energy-change (2. order) :-0.7290919E+01  (-0.6143394E+01)
 number of electron   10.0000000 magnetization 
 augmentation part    10.0000000 magnetization 

 Free energy of the ion-electron system (eV)
  ---------------------------------------------------
  alpha Z        PSCENC =         0.28152496
  Ewald energy   TEWEN  =       101.01608887
  -1/2 Hartree   DENC   =      -560.45143552
  -exchange  EXHF       =         0.00000000
  -V(xc)+E(xc)   XCENC  =        39.81681377
  PAW double counting   =       157.18045909     -161.29511202
  entropy T*S    EENTRO =         0.00000000
  eigenvalues    EBANDS =      -169.44553463
  atomic energy  EATOM  =       579.32078282
  ---------------------------------------------------
  free energy    TOTEN  =       -13.57641267 eV

  energy without entropy =      -13.57641267  energy(sigma->0) =      -13.57641267


--------------------------------------------------------------------------------------------------------




----------------------------------------- Iteration    1(   8)  ---------------------------------------


    EDDIAG:  cpu time    0.54: real time    0.54
  RMM-DIIS:  cpu time    1.24: real time    1.24
    ORTHCH:  cpu time    0.02: real time    0.02
       DOS:  cpu time    0.00: real time    0.00
    --------------------------------------------
      LOOP:  cpu time    1.79: real time    1.80

 eigenvalue-minimisations  :    16
 total energy-change (2. order) :-0.1551135E+01  (-0.1082564E+01)
 number of electron   10.0000000 magnetization 
 augmentation part    10.0000000 magnetization 

 Free energy of the ion-electron system (eV)
  ---------------------------------------------------
  alpha Z        PSCENC =         0.28152496
  Ewald energy   TEWEN  =       101.01608887
  -1/2 Hartree   DENC   =      -560.45143552
  -exchange  EXHF       =         0.00000000
  -V(xc)+E(xc)   XCENC  =        39.81681377
  PAW double counting   =       157.18045909     -161.29511202
  entropy T*S    EENTRO =         0.00000000
  eigenvalues    EBANDS =      -170.99666956
  atomic energy  EATOM  =       579.32078282
  ---------------------------------------------------
  free energy    TOTEN  =       -15.12754760 eV

  energy without entropy =      -15.12754760  energy(sigma->0) =      -15.12754760


--------------------------------------------------------------------------------------------------------




----------------------------------------- Iteration    1(   9)  ---------------------------------------


    EDDIAG:  cpu time    0.53: real time    0.53
  RMM-DIIS:  cpu time    2.04: real time    2.04
    ORTHCH:  cpu time    0.02: real time    0.02
       DOS:  cpu time    0.00: real time    0.00
    --------------------------------------------
      LOOP:  cpu time    2.59: real time    2.60

 eigenvalue-minimisations  :    32
 total energy-change (2. order) :-0.4838502E+00  (-0.4097583E+00)
 number of electron   10.0000000 magnetization 
 augmentation part    10.0000000 magnetization 

 Free energy of the ion-electron system (eV)
  ---------------------------------------------------
  alpha Z        PSCENC =         0.28152496
  Ewald energy   TEWEN  =       101.01608887
  -1/2 Hartree   DENC   =      -560.45143552
  -exchange  EXHF       =         0.00000000
  -V(xc)+E(xc)   XCENC  =        39.81681377
  PAW double counting   =       157.18045909     -161.29511202
  entropy T*S    EENTRO =         0.00000000
  eigenvalues    EBANDS =      -171.48051978
  atomic energy  EATOM  =       579.32078282
  ---------------------------------------------------
  free energy    TOTEN  =       -15.61139782 eV

  energy without entropy =      -15.61139782  energy(sigma->0) =      -15.61139782


--------------------------------------------------------------------------------------------------------




----------------------------------------- Iteration    1(  10)  ---------------------------------------


    EDDIAG:  cpu time    0.53: real time    0.53
  RMM-DIIS:  cpu time    2.25: real time    2.25
    ORTHCH:  cpu time    0.02: real time    0.02
       DOS:  cpu time    0.00: real time    0.00
    --------------------------------------------
      LOOP:  cpu time    2.80: real time    2.80

 eigenvalue-minimisations  :    34
 total energy-change (2. order) :-0.1032171E+00  (-0.7269456E-01)
 number of electron   10.0000000 magnetization 
 augmentation part    10.0000000 magnetization 

 Free energy of the ion-electron system (eV)
  ---------------------------------------------------
  alpha Z        PSCENC =         0.28152496
  Ewald energy   TEWEN  =       101.01608887
  -1/2 Hartree   DENC   =      -560.45143552
  -exchange  EXHF       =         0.00000000
  -V(xc)+E(xc)   XCENC  =        39.81681377
  PAW double counting   =       157.18045909     -161.29511202
  entropy T*S    EENTRO =         0.00000000
  eigenvalues    EBANDS =      -171.58373689
  atomic energy  EATOM  =       579.32078282
  ---------------------------------------------------
  free energy    TOTEN  =       -15.71461493 eV

  energy without entropy =      -15.71461493  energy(sigma->0) =      -15.71461493


--------------------------------------------------------------------------------------------------------




----------------------------------------- Iteration    1(  11)  ---------------------------------------


    EDDIAG:  cpu time    0.53: real time    0.53
  RMM-DIIS:  cpu time    2.06: real time    2.06
    ORTHCH:  cpu time    0.02: real time    0.02
       DOS:  cpu time    0.00: real time    0.00
    --------------------------------------------
      LOOP:  cpu time    2.60: real time    2.61

 eigenvalue-minimisations  :    32
 total energy-change (2. order) :-0.3312122E-02  (-0.1013436E-02)
 number of electron   10.0000000 magnetization 
 augmentation part    10.0000000 magnetization 

 Free energy of the ion-electron system (eV)
  ---------------------------------------------------
  alpha Z        PSCENC =         0.28152496
  Ewald energy   TEWEN  =       101.01608887
  -1/2 Hartree   DENC   =      -560.45143552
  -exchange  EXHF       =         0.00000000
  -V(xc)+E(xc)   XCENC  =        39.81681377
  PAW double counting   =       157.18045909     -161.29511202
  entropy T*S    EENTRO =         0.00000000
  eigenvalues    EBANDS =      -171.58704901
  atomic energy  EATOM  =       579.32078282
  ---------------------------------------------------
  free energy    TOTEN  =       -15.71792705 eV

  energy without entropy =      -15.71792705  energy(sigma->0) =      -15.71792705


--------------------------------------------------------------------------------------------------------




----------------------------------------- Iteration    1(  12)  ---------------------------------------


    EDDIAG:  cpu time    0.53: real time    0.53
  RMM-DIIS:  cpu time    2.29: real time    2.29
    ORTHCH:  cpu time    0.02: real time    0.02
       DOS:  cpu time    0.00: real time    0.00
    CHARGE:  cpu time    0.66: real time    0.66
    MIXING:  cpu time    0.07: real time    0.07
    --------------------------------------------
      LOOP:  cpu time    3.58: real time    3.58

 eigenvalue-minimisations  :    34
 total energy-change (2. order) :-0.1453215E-03  (-0.1252513E-03)
 number of electron    9.9999999 magnetization 
 augmentation part     0.0106427 magnetization 

 Broyden mixing:
  rms(total) = 0.63629E+00    rms(broyden)= 0.63590E+00
  rms(prec ) = 0.77858E+00
  weight for this iteration     100.00

 Free energy of the ion-electron system (eV)
  ---------------------------------------------------
  alpha Z        PSCENC =         0.28152496
  Ewald energy   TEWEN  =       101.01608887
  -1/2 Hartree   DENC   =      -560.45143552
  -exchange  EXHF       =         0.00000000
  -V(xc)+E(xc)   XCENC  =        39.81681377
  PAW double counting   =       157.18045909     -161.29511202
  entropy T*S    EENTRO =         0.00000000
  eigenvalues    EBANDS =      -171.58719433
  atomic energy  EATOM  =       579.32078282
  ---------------------------------------------------
  free energy    TOTEN  =       -15.71807237 eV

  energy without entropy =      -15.71807237  energy(sigma->0) =      -15.71807237


--------------------------------------------------------------------------------------------------------




----------------------------------------- Iteration    1(  13)  ---------------------------------------


    POTLOK:  cpu time    2.97: real time    2.97
    SETDIJ:  cpu time    0.00: real time    0.00
    EDDIAG:  cpu time    0.53: real time    0.53
  RMM-DIIS:  cpu time    2.02: real time    2.02
    ORTHCH:  cpu time    0.02: real time    0.02
       DOS:  cpu time    0.00: real time    0.00
    CHARGE:  cpu time    0.64: real time    0.64
    MIXING:  cpu time    0.07: real time    0.07
    --------------------------------------------
      LOOP:  cpu time    6.26: real time    6.28

 eigenvalue-minimisations  :    32
 total energy-change (2. order) : 0.6772024E+00  (-0.1540666E+00)
 number of electron   10.0000000 magnetization 
 augmentation part    -0.0127188 magnetization 

 Broyden mixing:
  rms(total) = 0.32105E+00    rms(broyden)= 0.32075E+00
  rms(prec ) = 0.38016E+00
  weight for this iteration     100.00

 eigenvalues of (default mixing * dielectric matrix)
  average eigenvalue GAMMA=   1.1016
  1.1016

 Free energy of the ion-electron system (eV)
  ---------------------------------------------------
  alpha Z        PSCENC =         0.28152496
  Ewald energy   TEWEN  =       101.01608887
  -1/2 Hartree   DENC   =      -574.63605152
  -exchange  EXHF       =         0.00000000
  -V(xc)+E(xc)   XCENC  =        40.63502385
  PAW double counting   =       179.45003670     -183.78251067
  entropy T*S    EENTRO =         0.00000000
  eigenvalues    EBANDS =      -157.32576502
  atomic energy  EATOM  =       579.32078282
  ---------------------------------------------------
  free energy    TOTEN  =       -15.04087000 eV

  energy without entropy =      -15.04087000  energy(sigma->0) =      -15.04087000


--------------------------------------------------------------------------------------------------------




----------------------------------------- Iteration    1(  14)  ---------------------------------------


    POTLOK:  cpu time    2.99: real time    2.99
    SETDIJ:  cpu time    0.00: real time    0.00
    EDDIAG:  cpu time    0.53: real time    0.53
  RMM-DIIS:  cpu time    2.02: real time    2.02
    ORTHCH:  cpu time    0.02: real time    0.02
       DOS:  cpu time    0.00: real time    0.00
    CHARGE:  cpu time    0.65: real time    0.65
    MIXING:  cpu time    0.07: real time    0.07
    --------------------------------------------
      LOOP:  cpu time    6.29: real time    6.29

 eigenvalue-minimisations  :    32
 total energy-change (2. order) : 0.1433246E+00  (-0.1997179E-01)
 number of electron   10.0000000 magnetization 
 augmentation part    -0.0070681 magnetization 

 Broyden mixing:
  rms(total) = 0.15836E+00    rms(broyden)= 0.15836E+00
  rms(prec ) = 0.18504E+00
  weight for this iteration     100.00

 eigenvalues of (default mixing * dielectric matrix)
  average eigenvalue GAMMA=   1.4596
  0.8256  2.0937

 Free energy of the ion-electron system (eV)
  ---------------------------------------------------
  alpha Z        PSCENC =         0.28152496
  Ewald energy   TEWEN  =       101.01608887
  -1/2 Hartree   DENC   =      -577.50500284
  -exchange  EXHF       =         0.00000000
  -V(xc)+E(xc)   XCENC  =        40.82075304
  PAW double counting   =       184.72702320     -189.07657693
  entropy T*S    EENTRO =         0.00000000
  eigenvalues    EBANDS =      -154.48213858
  atomic energy  EATOM  =       579.32078282
  ---------------------------------------------------
  free energy    TOTEN  =       -14.89754545 eV

  energy without entropy =      -14.89754545  energy(sigma->0) =      -14.89754545


--------------------------------------------------------------------------------------------------------




----------------------------------------- Iteration    1(  15)  ---------------------------------------


    POTLOK:  cpu time    2.98: real time    2.98
    SETDIJ:  cpu time    0.00: real time    0.00
    EDDIAG:  cpu time    0.53: real time    0.53
  RMM-DIIS:  cpu time    2.02: real time    2.02
    ORTHCH:  cpu time    0.02: real time    0.02
       DOS:  cpu time    0.00: real time    0.00
    CHARGE:  cpu time    0.65: real time    0.65
    MIXING:  cpu time    0.07: real time    0.07
    --------------------------------------------
      LOOP:  cpu time    6.28: real time    6.28

 eigenvalue-minimisations  :    32
 total energy-change (2. order) : 0.3136670E-01  (-0.1297938E-01)
 number of electron   10.0000000 magnetization 
 augmentation part    -0.0085307 magnetization 

 Broyden mixing:
  rms(total) = 0.38049E-01    rms(broyden)= 0.38028E-01
  rms(prec ) = 0.48228E-01
  weight for this iteration     100.00

 eigenvalues of (default mixing * dielectric matrix)
  average eigenvalue GAMMA=   1.6150
  2.2566  0.8136  1.7746

 Free energy of the ion-electron system (eV)
  ---------------------------------------------------
  alpha Z        PSCENC =         0.28152496
  Ewald energy   TEWEN  =       101.01608887
  -1/2 Hartree   DENC   =      -581.70005069
  -exchange  EXHF       =         0.00000000
  -V(xc)+E(xc)   XCENC  =        41.07900837
  PAW double counting   =       192.03728599     -196.41155595
  entropy T*S    EENTRO =         0.00000000
  eigenvalues    EBANDS =      -150.48926312
  atomic energy  EATOM  =       579.32078282
  ---------------------------------------------------
  free energy    TOTEN  =       -14.86617875 eV

  energy without entropy =      -14.86617875  energy(sigma->0) =      -14.86617875


--------------------------------------------------------------------------------------------------------




----------------------------------------- Iteration    1(  16)  ---------------------------------------


    POTLOK:  cpu time    2.97: real time    2.97
    SETDIJ:  cpu time    0.00: real time    0.00
    EDDIAG:  cpu time    0.53: real time    0.53
  RMM-DIIS:  cpu time    2.03: real time    2.03
    ORTHCH:  cpu time    0.02: real time    0.02
       DOS:  cpu time    0.00: real time    0.00
    CHARGE:  cpu time    0.65: real time    0.65
    MIXING:  cpu time    0.08: real time    0.07
    --------------------------------------------
      LOOP:  cpu time    6.28: real time    6.28

 eigenvalue-minimisations  :    32
 total energy-change (2. order) : 0.8214482E-03  (-0.6964786E-03)
 number of electron   10.0000000 magnetization 
 augmentation part    -0.0097512 magnetization 

 Broyden mixing:
  rms(total) = 0.14757E-01    rms(broyden)= 0.14741E-01
  rms(prec ) = 0.20876E-01
  weight for this iteration     100.00

 eigenvalues of (default mixing * dielectric matrix)
  average eigenvalue GAMMA=   1.5271
  2.3718  1.9318  0.9023  0.9023

 Free energy of the ion-electron system (eV)
  ---------------------------------------------------
  alpha Z        PSCENC =         0.28152496
  Ewald energy   TEWEN  =       101.01608887
  -1/2 Hartree   DENC   =      -581.60035452
  -exchange  EXHF       =         0.00000000
  -V(xc)+E(xc)   XCENC  =        41.06869400
  PAW double counting   =       192.01113582     -196.35924527
  entropy T*S    EENTRO =         0.00000000
  eigenvalues    EBANDS =      -150.60398398
  atomic energy  EATOM  =       579.32078282
  ---------------------------------------------------
  free energy    TOTEN  =       -14.86535730 eV

  energy without entropy =      -14.86535730  energy(sigma->0) =      -14.86535730


--------------------------------------------------------------------------------------------------------




----------------------------------------- Iteration    1(  17)  ---------------------------------------


    POTLOK:  cpu time    2.96: real time    2.97
    SETDIJ:  cpu time    0.00: real time    0.00
    EDDIAG:  cpu time    0.53: real time    0.53
  RMM-DIIS:  cpu time    2.02: real time    2.03
    ORTHCH:  cpu time    0.02: real time    0.02
       DOS:  cpu time    0.00: real time    0.00
    CHARGE:  cpu time    0.65: real time    0.65
    MIXING:  cpu time    0.07: real time    0.07
    --------------------------------------------
      LOOP:  cpu time    6.27: real time    6.28

 eigenvalue-minimisations  :    32
 total energy-change (2. order) :-0.5727005E-03  (-0.1346898E-03)
 number of electron   10.0000000 magnetization 
 augmentation part    -0.0090326 magnetization 

 Broyden mixing:
  rms(total) = 0.43732E-02    rms(broyden)= 0.43580E-02
  rms(prec ) = 0.82984E-02
  weight for this iteration     100.00

 eigenvalues of (default mixing * dielectric matrix)
  average eigenvalue GAMMA=   1.7186
  2.3667  2.3667  2.0572  0.9012  0.9012

 Free energy of the ion-electron system (eV)
  ---------------------------------------------------
  alpha Z        PSCENC =         0.28152496
  Ewald energy   TEWEN  =       101.01608887
  -1/2 Hartree   DENC   =      -581.41622444
  -exchange  EXHF       =         0.00000000
  -V(xc)+E(xc)   XCENC  =        41.05507827
  PAW double counting   =       191.62772806     -195.96910456
  entropy T*S    EENTRO =         0.00000000
  eigenvalues    EBANDS =      -150.78180398
  atomic energy  EATOM  =       579.32078282
  ---------------------------------------------------
  free energy    TOTEN  =       -14.86593000 eV

  energy without entropy =      -14.86593000  energy(sigma->0) =      -14.86593000


--------------------------------------------------------------------------------------------------------




----------------------------------------- Iteration    1(  18)  ---------------------------------------


    POTLOK:  cpu time    2.96: real time    2.96
    SETDIJ:  cpu time    0.00: real time    0.00
    EDDIAG:  cpu time    0.53: real time    0.53
  RMM-DIIS:  cpu time    2.04: real time    2.03
    ORTHCH:  cpu time    0.02: real time    0.02
       DOS:  cpu time    0.00: real time    0.00
    CHARGE:  cpu time    0.65: real time    0.65
    MIXING:  cpu time    0.08: real time    0.08
    --------------------------------------------
      LOOP:  cpu time    6.27: real time    6.28

 eigenvalue-minimisations  :    32
 total energy-change (2. order) :-0.1799687E-02  (-0.5869756E-04)
 number of electron   10.0000000 magnetization 
 augmentation part    -0.0091705 magnetization 

 Broyden mixing:
  rms(total) = 0.22290E-02    rms(broyden)= 0.22286E-02
  rms(prec ) = 0.42695E-02
  weight for this iteration     100.00

 eigenvalues of (default mixing * dielectric matrix)
  average eigenvalue GAMMA=   1.6990
  3.1566  2.4067  1.7151  0.9336  0.9336  1.0485

 Free energy of the ion-electron system (eV)
  ---------------------------------------------------
  alpha Z        PSCENC =         0.28152496
  Ewald energy   TEWEN  =       101.01608887
  -1/2 Hartree   DENC   =      -581.80074505
  -exchange  EXHF       =         0.00000000
  -V(xc)+E(xc)   XCENC  =        41.06909835
  PAW double counting   =       191.83528763     -196.18158230
  entropy T*S    EENTRO =         0.00000000
  eigenvalues    EBANDS =      -150.40818498
  atomic energy  EATOM  =       579.32078282
  ---------------------------------------------------
  free energy    TOTEN  =       -14.86772969 eV

  energy without entropy =      -14.86772969  energy(sigma->0) =      -14.86772969


--------------------------------------------------------------------------------------------------------




----------------------------------------- Iteration    1(  19)  ---------------------------------------


    POTLOK:  cpu time    2.95: real time    2.95
    SETDIJ:  cpu time    0.00: real time    0.00
    EDDIAG:  cpu time    0.53: real time    0.53
  RMM-DIIS:  cpu time    2.06: real time    2.06
    ORTHCH:  cpu time    0.02: real time    0.02
       DOS:  cpu time    0.00: real time    0.00
    CHARGE:  cpu time    0.65: real time    0.65
    MIXING:  cpu time    0.08: real time    0.08
    --------------------------------------------
      LOOP:  cpu time    6.29: real time    6.29

 eigenvalue-minimisations  :    32
 total energy-change (2. order) :-0.6149960E-03  (-0.1483112E-04)
 number of electron   10.0000000 magnetization 
 augmentation part    -0.0091571 magnetization 

 Broyden mixing:
  rms(total) = 0.13946E-02    rms(broyden)= 0.13943E-02
  rms(prec ) = 0.26877E-02
  weight for this iteration     100.00

 eigenvalues of (default mixing * dielectric matrix)
  average eigenvalue GAMMA=   2.0990
  4.9648  2.5539  2.5539  1.8135  0.9003  0.9003  1.0065

 Free energy of the ion-electron system (eV)
  ---------------------------------------------------
  alpha Z        PSCENC =         0.28152496
  Ewald energy   TEWEN  =       101.01608887
  -1/2 Hartree   DENC   =      -581.77892213
  -exchange  EXHF       =         0.00000000
  -V(xc)+E(xc)   XCENC  =        41.06459715
  PAW double counting   =       191.67559697     -196.01895122
  entropy T*S    EENTRO =         0.00000000
  eigenvalues    EBANDS =      -150.42906211
  atomic energy  EATOM  =       579.32078282
  ---------------------------------------------------
  free energy    TOTEN  =       -14.86834469 eV

  energy without entropy =      -14.86834469  energy(sigma->0) =      -14.86834469


--------------------------------------------------------------------------------------------------------




----------------------------------------- Iteration    1(  20)  ---------------------------------------


    POTLOK:  cpu time    2.92: real time    2.92
    SETDIJ:  cpu time    0.00: real time    0.00
    EDDIAG:  cpu time    0.53: real time    0.53
  RMM-DIIS:  cpu time    2.04: real time    2.03
    ORTHCH:  cpu time    0.02: real time    0.02
       DOS:  cpu time    0.00: real time    0.00
    CHARGE:  cpu time    0.64: real time    0.65
    MIXING:  cpu time    0.08: real time    0.08
    --------------------------------------------
      LOOP:  cpu time    6.24: real time    6.23

 eigenvalue-minimisations  :    32
 total energy-change (2. order) :-0.9175211E-03  (-0.1660757E-04)
 number of electron   10.0000000 magnetization 
 augmentation part    -0.0091778 magnetization 

 Broyden mixing:
  rms(total) = 0.54465E-03    rms(broyden)= 0.54447E-03
  rms(prec ) = 0.10412E-02
  weight for this iteration     100.00

 eigenvalues of (default mixing * dielectric matrix)
  average eigenvalue GAMMA=   1.9904
  5.2664  2.6224  2.3355  1.8275  0.8975  0.8975  1.0380  1.0380

 Free energy of the ion-electron system (eV)
  ---------------------------------------------------
  alpha Z        PSCENC =         0.28152496
  Ewald energy   TEWEN  =       101.01608887
  -1/2 Hartree   DENC   =      -581.89319307
  -exchange  EXHF       =         0.00000000
  -V(xc)+E(xc)   XCENC  =        41.06788758
  PAW double counting   =       191.69642903     -196.03975504
  entropy T*S    EENTRO =         0.00000000
  eigenvalues    EBANDS =      -150.31902736
  atomic energy  EATOM  =       579.32078282
  ---------------------------------------------------
  free energy    TOTEN  =       -14.86926221 eV

  energy without entropy =      -14.86926221  energy(sigma->0) =      -14.86926221


--------------------------------------------------------------------------------------------------------




----------------------------------------- Iteration    1(  21)  ---------------------------------------


    POTLOK:  cpu time    2.92: real time    2.92
    SETDIJ:  cpu time    0.00: real time    0.00
    EDDIAG:  cpu time    0.53: real time    0.53
  RMM-DIIS:  cpu time    2.04: real time    2.04
    ORTHCH:  cpu time    0.02: real time    0.02
       DOS:  cpu time    0.00: real time    0.00
    CHARGE:  cpu time    0.65: real time    0.65
    MIXING:  cpu time    0.08: real time    0.08
    --------------------------------------------
      LOOP:  cpu time    6.24: real time    6.25

 eigenvalue-minimisations  :    32
 total energy-change (2. order) :-0.1662098E-03  (-0.1423855E-05)
 number of electron   10.0000000 magnetization 
 augmentation part    -0.0092174 magnetization 

 Broyden mixing:
  rms(total) = 0.71703E-03    rms(broyden)= 0.71656E-03
  rms(prec ) = 0.10729E-02
  weight for this iteration     100.00

 eigenvalues of (default mixing * dielectric matrix)
  average eigenvalue GAMMA=   2.3371
  6.6885  3.7137  2.5218  2.5218  1.7726  0.9099  0.9099  0.9980  0.9980

 Free energy of the ion-electron system (eV)
  ---------------------------------------------------
  alpha Z        PSCENC =         0.28152496
  Ewald energy   TEWEN  =       101.01608887
  -1/2 Hartree   DENC   =      -581.89793222
  -exchange  EXHF       =         0.00000000
  -V(xc)+E(xc)   XCENC  =        41.06775014
  PAW double counting   =       191.70738091     -196.05126439
  entropy T*S    EENTRO =         0.00000000
  eigenvalues    EBANDS =      -150.31375951
  atomic energy  EATOM  =       579.32078282
  ---------------------------------------------------
  free energy    TOTEN  =       -14.86942842 eV

  energy without entropy =      -14.86942842  energy(sigma->0) =      -14.86942842


--------------------------------------------------------------------------------------------------------




----------------------------------------- Iteration    1(  22)  ---------------------------------------


    POTLOK:  cpu time    2.92: real time    2.92
    SETDIJ:  cpu time    0.00: real time    0.00
    EDDIAG:  cpu time    0.53: real time    0.53
  RMM-DIIS:  cpu time    2.03: real time    2.03
    ORTHCH:  cpu time    0.02: real time    0.02
       DOS:  cpu time    0.00: real time    0.00
    CHARGE:  cpu time    0.64: real time    0.65
    MIXING:  cpu time    0.08: real time    0.08
    --------------------------------------------
      LOOP:  cpu time    6.22: real time    6.23

 eigenvalue-minimisations  :    32
 total energy-change (2. order) :-0.2366123E-03  (-0.2140848E-05)
 number of electron   10.0000000 magnetization 
 augmentation part    -0.0091867 magnetization 

 Broyden mixing:
  rms(total) = 0.24938E-03    rms(broyden)= 0.24887E-03
  rms(prec ) = 0.35860E-03
  weight for this iteration     100.00

 eigenvalues of (default mixing * dielectric matrix)
  average eigenvalue GAMMA=   2.1865
  6.6133  3.7864  2.4312  2.4312  1.8361  0.9044  0.9044  0.9570  1.0003  1.0003

 Free energy of the ion-electron system (eV)
  ---------------------------------------------------
  alpha Z        PSCENC =         0.28152496
  Ewald energy   TEWEN  =       101.01608887
  -1/2 Hartree   DENC   =      -581.87147566
  -exchange  EXHF       =         0.00000000
  -V(xc)+E(xc)   XCENC  =        41.06568893
  PAW double counting   =       191.68824801     -196.03179193
  entropy T*S    EENTRO =         0.00000000
  eigenvalues    EBANDS =      -150.33873104
  atomic energy  EATOM  =       579.32078282
  ---------------------------------------------------
  free energy    TOTEN  =       -14.86966503 eV

  energy without entropy =      -14.86966503  energy(sigma->0) =      -14.86966503


--------------------------------------------------------------------------------------------------------




----------------------------------------- Iteration    1(  23)  ---------------------------------------


    POTLOK:  cpu time    2.90: real time    2.90
    SETDIJ:  cpu time    0.00: real time    0.00
    EDDIAG:  cpu time    0.53: real time    0.53
  RMM-DIIS:  cpu time    2.05: real time    2.05
    ORTHCH:  cpu time    0.02: real time    0.02
       DOS:  cpu time    0.00: real time    0.00
    CHARGE:  cpu time    0.66: real time    0.65
    MIXING:  cpu time    0.08: real time    0.08
    --------------------------------------------
      LOOP:  cpu time    6.24: real time    6.24

 eigenvalue-minimisations  :    32
 total energy-change (2. order) :-0.8875119E-05  (-0.9163848E-07)
 number of electron   10.0000000 magnetization 
 augmentation part    -0.0091931 magnetization 

 Broyden mixing:
  rms(total) = 0.16869E-03    rms(broyden)= 0.16868E-03
  rms(prec ) = 0.26723E-03
  weight for this iteration     100.00

 eigenvalues of (default mixing * dielectric matrix)
  average eigenvalue GAMMA=   2.3807
  7.7157  4.3821  2.7995  2.3175  2.3175  1.7964  0.9122  0.9122  0.9585  1.0379
  1.0379

 Free energy of the ion-electron system (eV)
  ---------------------------------------------------
  alpha Z        PSCENC =         0.28152496
  Ewald energy   TEWEN  =       101.01608887
  -1/2 Hartree   DENC   =      -581.88172019
  -exchange  EXHF       =         0.00000000
  -V(xc)+E(xc)   XCENC  =        41.06633084
  PAW double counting   =       191.70252434     -196.04624523
  entropy T*S    EENTRO =         0.00000000
  eigenvalues    EBANDS =      -150.32896032
  atomic energy  EATOM  =       579.32078282
  ---------------------------------------------------
  free energy    TOTEN  =       -14.86967390 eV

  energy without entropy =      -14.86967390  energy(sigma->0) =      -14.86967390


--------------------------------------------------------------------------------------------------------




----------------------------------------- Iteration    1(  24)  ---------------------------------------


    POTLOK:  cpu time    2.92: real time    2.92
    SETDIJ:  cpu time    0.00: real time    0.00
    EDDIAG:  cpu time    0.53: real time    0.53
  RMM-DIIS:  cpu time    2.03: real time    2.03
    ORTHCH:  cpu time    0.02: real time    0.02
       DOS:  cpu time    0.00: real time    0.00
    CHARGE:  cpu time    0.65: real time    0.65
    MIXING:  cpu time    0.08: real time    0.08
    --------------------------------------------
      LOOP:  cpu time    6.23: real time    6.23

 eigenvalue-minimisations  :    32
 total energy-change (2. order) :-0.3480137E-04  (-0.2009422E-06)
 number of electron   10.0000000 magnetization 
 augmentation part    -0.0091942 magnetization 

 Broyden mixing:
  rms(total) = 0.83466E-04    rms(broyden)= 0.83455E-04
  rms(prec ) = 0.10975E-03
  weight for this iteration     100.00

 eigenvalues of (default mixing * dielectric matrix)
  average eigenvalue GAMMA=   2.3669
  7.9082  4.6027  2.9323  2.2222  2.2222  1.9457  1.3819  1.3819  0.9141  0.9141
  0.9561  1.0214

 Free energy of the ion-electron system (eV)
  ---------------------------------------------------
  alpha Z        PSCENC =         0.28152496
  Ewald energy   TEWEN  =       101.01608887
  -1/2 Hartree   DENC   =      -581.87563171
  -exchange  EXHF       =         0.00000000
  -V(xc)+E(xc)   XCENC  =        41.06604465
  PAW double counting   =       191.69936008     -196.04297376
  entropy T*S    EENTRO =         0.00000000
  eigenvalues    EBANDS =      -150.33490461
  atomic energy  EATOM  =       579.32078282
  ---------------------------------------------------
  free energy    TOTEN  =       -14.86970871 eV

  energy without entropy =      -14.86970871  energy(sigma->0) =      -14.86970871


--------------------------------------------------------------------------------------------------------




----------------------------------------- Iteration    1(  25)  ---------------------------------------


    POTLOK:  cpu time    2.93: real time    2.93
    SETDIJ:  cpu time    0.00: real time    0.00
    EDDIAG:  cpu time    0.53: real time    0.53
  RMM-DIIS:  cpu time    2.05: real time    2.05
    ORTHCH:  cpu time    0.02: real time    0.02
       DOS:  cpu time    0.00: real time    0.00
    CHARGE:  cpu time    0.65: real time    0.65
    MIXING:  cpu time    0.08: real time    0.08
    --------------------------------------------
      LOOP:  cpu time    6.26: real time    6.27

 eigenvalue-minimisations  :    32
 total energy-change (2. order) :-0.3729180E-05  (-0.4080511E-07)
 number of electron   10.0000000 magnetization 
 augmentation part    -0.0091867 magnetization 

 Broyden mixing:
  rms(total) = 0.12320E-03    rms(broyden)= 0.12310E-03
  rms(prec ) = 0.15419E-03
  weight for this iteration     100.00

 eigenvalues of (default mixing * dielectric matrix)
  average eigenvalue GAMMA=   2.4509
  8.5098  5.2894  3.5292  2.6352  2.3227  1.7513  1.7513  0.9101  0.9101  1.1779
  0.9640  1.0553  1.0553

 Free energy of the ion-electron system (eV)
  ---------------------------------------------------
  alpha Z        PSCENC =         0.28152496
  Ewald energy   TEWEN  =       101.01608887
  -1/2 Hartree   DENC   =      -581.87215547
  -exchange  EXHF       =         0.00000000
  -V(xc)+E(xc)   XCENC  =        41.06580681
  PAW double counting   =       191.69333824     -196.03683569
  entropy T*S    EENTRO =         0.00000000
  eigenvalues    EBANDS =      -150.33826299
  atomic energy  EATOM  =       579.32078282
  ---------------------------------------------------
  free energy    TOTEN  =       -14.86971243 eV

  energy without entropy =      -14.86971243  energy(sigma->0) =      -14.86971243


--------------------------------------------------------------------------------------------------------




----------------------------------------- Iteration    1(  26)  ---------------------------------------


    POTLOK:  cpu time    2.94: real time    2.94
    SETDIJ:  cpu time    0.00: real time    0.00
    EDDIAG:  cpu time    0.53: real time    0.53
  RMM-DIIS:  cpu time    2.03: real time    2.03
    ORTHCH:  cpu time    0.02: real time    0.02
       DOS:  cpu time    0.00: real time    0.00
    CHARGE:  cpu time    0.65: real time    0.65
    MIXING:  cpu time    0.08: real time    0.08
    --------------------------------------------
      LOOP:  cpu time    6.25: real time    6.26

 eigenvalue-minimisations  :    32
 total energy-change (2. order) :-0.2371571E-05  (-0.2137673E-07)
 number of electron   10.0000000 magnetization 
 augmentation part    -0.0091914 magnetization 

 Broyden mixing:
  rms(total) = 0.10114E-04    rms(broyden)= 0.98564E-05
  rms(prec ) = 0.17116E-04
  weight for this iteration     100.00

 eigenvalues of (default mixing * dielectric matrix)
  average eigenvalue GAMMA=   2.4924
  8.6213  5.4594  3.6551  2.8235  2.4114  2.4114  1.7651  1.7651  0.9083  0.9083
  1.0981  1.0981  0.9843  0.9843

 Free energy of the ion-electron system (eV)
  ---------------------------------------------------
  alpha Z        PSCENC =         0.28152496
  Ewald energy   TEWEN  =       101.01608887
  -1/2 Hartree   DENC   =      -581.87567938
  -exchange  EXHF       =         0.00000000
  -V(xc)+E(xc)   XCENC  =        41.06601133
  PAW double counting   =       191.69739575     -196.04097352
  entropy T*S    EENTRO =         0.00000000
  eigenvalues    EBANDS =      -150.33486564
  atomic energy  EATOM  =       579.32078282
  ---------------------------------------------------
  free energy    TOTEN  =       -14.86971481 eV

  energy without entropy =      -14.86971481  energy(sigma->0) =      -14.86971481


--------------------------------------------------------------------------------------------------------




----------------------------------------- Iteration    1(  27)  ---------------------------------------


    POTLOK:  cpu time    2.95: real time    2.95
    SETDIJ:  cpu time    0.00: real time    0.00
    EDDIAG:  cpu time    0.53: real time    0.53
  RMM-DIIS:  cpu time    2.00: real time    2.00
    ORTHCH:  cpu time    0.02: real time    0.02
       DOS:  cpu time    0.00: real time    0.00
    CHARGE:  cpu time    0.66: real time    0.66
    MIXING:  cpu time    0.09: real time    0.09
    --------------------------------------------
      LOOP:  cpu time    6.25: real time    6.25

 eigenvalue-minimisations  :    31
 total energy-change (2. order) :-0.5431875E-06  (-0.2021089E-08)
 number of electron   10.0000000 magnetization 
 augmentation part    -0.0091915 magnetization 

 Broyden mixing:
  rms(total) = 0.58582E-05    rms(broyden)= 0.58337E-05
  rms(prec ) = 0.93081E-05
  weight for this iteration     100.00

 eigenvalues of (default mixing * dielectric matrix)
  average eigenvalue GAMMA=   2.4559
  8.6764  5.5404  4.0725  3.0610  2.5751  2.3408  1.7518  1.6177  1.3383  1.0558
  1.0558  0.9091  0.9091  0.9677  0.9677

 Free energy of the ion-electron system (eV)
  ---------------------------------------------------
  alpha Z        PSCENC =         0.28152496
  Ewald energy   TEWEN  =       101.01608887
  -1/2 Hartree   DENC   =      -581.87589737
  -exchange  EXHF       =         0.00000000
  -V(xc)+E(xc)   XCENC  =        41.06602905
  PAW double counting   =       191.69734835     -196.04092906
  entropy T*S    EENTRO =         0.00000000
  eigenvalues    EBANDS =      -150.33466297
  atomic energy  EATOM  =       579.32078282
  ---------------------------------------------------
  free energy    TOTEN  =       -14.86971535 eV

  energy without entropy =      -14.86971535  energy(sigma->0) =      -14.86971535


--------------------------------------------------------------------------------------------------------




----------------------------------------- Iteration    1(  28)  ---------------------------------------


    POTLOK:  cpu time    2.96: real time    2.95
    SETDIJ:  cpu time    0.01: real time    0.01
    EDDIAG:  cpu time    0.53: real time    0.53
  RMM-DIIS:  cpu time    1.98: real time    1.98
    ORTHCH:  cpu time    0.03: real time    0.03
       DOS:  cpu time    0.00: real time    0.00
    CHARGE:  cpu time    0.65: real time    0.65
    MIXING:  cpu time    0.09: real time    0.09
    --------------------------------------------
      LOOP:  cpu time    6.24: real time    6.26

 eigenvalue-minimisations  :    31
 total energy-change (2. order) :-0.1623134E-06  (-0.5503189E-09)
 number of electron   10.0000000 magnetization 
 augmentation part    -0.0091911 magnetization 

 Broyden mixing:
  rms(total) = 0.35659E-05    rms(broyden)= 0.35638E-05
  rms(prec ) = 0.61823E-05
  weight for this iteration     100.00

 eigenvalues of (default mixing * dielectric matrix)
  average eigenvalue GAMMA=   2.4946
  8.7335  5.5913  4.3563  3.0871  2.8763  2.3916  2.3916  1.7463  1.7463  1.1290
  1.0930  0.9088  0.9088  0.9573  0.9986  0.9986

 Free energy of the ion-electron system (eV)
  ---------------------------------------------------
  alpha Z        PSCENC =         0.28152496
  Ewald energy   TEWEN  =       101.01608887
  -1/2 Hartree   DENC   =      -581.87598898
  -exchange  EXHF       =         0.00000000
  -V(xc)+E(xc)   XCENC  =        41.06603439
  PAW double counting   =       191.69734677     -196.04092749
  entropy T*S    EENTRO =         0.00000000
  eigenvalues    EBANDS =      -150.33457685
  atomic energy  EATOM  =       579.32078282
  ---------------------------------------------------
  free energy    TOTEN  =       -14.86971551 eV

  energy without entropy =      -14.86971551  energy(sigma->0) =      -14.86971551


--------------------------------------------------------------------------------------------------------




----------------------------------------- Iteration    1(  29)  ---------------------------------------


    POTLOK:  cpu time    2.99: real time    2.99
    SETDIJ:  cpu time    0.00: real time    0.00
    EDDIAG:  cpu time    0.53: real time    0.53
  RMM-DIIS:  cpu time    1.90: real time    1.89
    ORTHCH:  cpu time    0.03: real time    0.03
       DOS:  cpu time    0.00: real time    0.00
    CHARGE:  cpu time    0.65: real time    0.65
    MIXING:  cpu time    0.09: real time    0.09
    --------------------------------------------
      LOOP:  cpu time    6.18: real time    6.19

 eigenvalue-minimisations  :    29
 total energy-change (2. order) :-0.1496489E-06  (-0.1893596E-09)
 number of electron   10.0000000 magnetization 
 augmentation part    -0.0091911 magnetization 

 Broyden mixing:
  rms(total) = 0.24581E-05    rms(broyden)= 0.24579E-05
  rms(prec ) = 0.36225E-05
  weight for this iteration     100.00

 eigenvalues of (default mixing * dielectric matrix)
  average eigenvalue GAMMA=   2.4632
  8.7302  5.6816  4.5120  3.4478  2.7699  2.5684  2.2515  1.7419  1.7419  1.4216
  1.1192  1.1192  0.9089  0.9089  0.9929  0.9929  0.9659

 Free energy of the ion-electron system (eV)
  ---------------------------------------------------
  alpha Z        PSCENC =         0.28152496
  Ewald energy   TEWEN  =       101.01608887
  -1/2 Hartree   DENC   =      -581.87570814
  -exchange  EXHF       =         0.00000000
  -V(xc)+E(xc)   XCENC  =        41.06602156
  PAW double counting   =       191.69724082     -196.04081925
  entropy T*S    EENTRO =         0.00000000
  eigenvalues    EBANDS =      -150.33484731
  atomic energy  EATOM  =       579.32078282
  ---------------------------------------------------
  free energy    TOTEN  =       -14.86971566 eV

  energy without entropy =      -14.86971566  energy(sigma->0) =      -14.86971566


--------------------------------------------------------------------------------------------------------




----------------------------------------- Iteration    1(  30)  ---------------------------------------


    POTLOK:  cpu time    2.99: real time    3.00
    SETDIJ:  cpu time    0.00: real time    0.00
    EDDIAG:  cpu time    0.53: real time    0.53
  RMM-DIIS:  cpu time    1.84: real time    1.85
    ORTHCH:  cpu time    0.03: real time    0.02
       DOS:  cpu time    0.00: real time    0.00
    CHARGE:  cpu time    0.64: real time    0.65
    MIXING:  cpu time    0.09: real time    0.09
    --------------------------------------------
      LOOP:  cpu time    6.12: real time    6.15

 eigenvalue-minimisations  :    27
 total energy-change (2. order) :-0.3387595E-07  (-0.1506351E-10)
 number of electron   10.0000000 magnetization 
 augmentation part    -0.0091912 magnetization 

 Broyden mixing:
  rms(total) = 0.14715E-05    rms(broyden)= 0.14713E-05
  rms(prec ) = 0.23297E-05
  weight for this iteration     100.00

 eigenvalues of (default mixing * dielectric matrix)
  average eigenvalue GAMMA=   2.4981
  8.7313  5.8123  5.0083  3.7982  2.8627  2.6905  2.2781  2.2781  1.7227  1.7227
  1.1413  1.1413  0.9090  0.9090  1.0079  1.0079  0.9721  0.9721

 Free energy of the ion-electron system (eV)
  ---------------------------------------------------
  alpha Z        PSCENC =         0.28152496
  Ewald energy   TEWEN  =       101.01608887
  -1/2 Hartree   DENC   =      -581.87570634
  -exchange  EXHF       =         0.00000000
  -V(xc)+E(xc)   XCENC  =        41.06602197
  PAW double counting   =       191.69725581     -196.04083600
  entropy T*S    EENTRO =         0.00000000
  eigenvalues    EBANDS =      -150.33484778
  atomic energy  EATOM  =       579.32078282
  ---------------------------------------------------
  free energy    TOTEN  =       -14.86971569 eV

  energy without entropy =      -14.86971569  energy(sigma->0) =      -14.86971569


--------------------------------------------------------------------------------------------------------




----------------------------------------- Iteration    1(  31)  ---------------------------------------


    POTLOK:  cpu time    3.00: real time    3.00
    SETDIJ:  cpu time    0.00: real time    0.00
    EDDIAG:  cpu time    0.53: real time    0.53
  RMM-DIIS:  cpu time    1.87: real time    1.87
    ORTHCH:  cpu time    0.02: real time    0.03
       DOS:  cpu time    0.00: real time    0.00
    CHARGE:  cpu time    0.64: real time    0.65
    MIXING:  cpu time    0.10: real time    0.09
    --------------------------------------------
      LOOP:  cpu time    6.18: real time    6.18

 eigenvalue-minimisations  :    28
 total energy-change (2. order) :-0.2172601E-07  (-0.2386358E-10)
 number of electron   10.0000000 magnetization 
 augmentation part    -0.0091912 magnetization 

 Broyden mixing:
  rms(total) = 0.74776E-06    rms(broyden)= 0.74689E-06
  rms(prec ) = 0.12448E-05
  weight for this iteration     100.00

 eigenvalues of (default mixing * dielectric matrix)
  average eigenvalue GAMMA=   2.5055
  8.7410  6.3392  5.4295  4.0275  3.0517  2.7235  2.3168  2.2640  1.7392  1.7392
  1.2915  1.1507  1.0569  1.0569  0.9080  0.9080  0.9839  0.9839  0.8935

 Free energy of the ion-electron system (eV)
  ---------------------------------------------------
  alpha Z        PSCENC =         0.28152496
  Ewald energy   TEWEN  =       101.01608887
  -1/2 Hartree   DENC   =      -581.87573589
  -exchange  EXHF       =         0.00000000
  -V(xc)+E(xc)   XCENC  =        41.06602450
  PAW double counting   =       191.69731531     -196.04089529
  entropy T*S    EENTRO =         0.00000000
  eigenvalues    EBANDS =      -150.33482099
  atomic energy  EATOM  =       579.32078282
  ---------------------------------------------------
  free energy    TOTEN  =       -14.86971572 eV

  energy without entropy =      -14.86971572  energy(sigma->0) =      -14.86971572


--------------------------------------------------------------------------------------------------------




----------------------------------------- Iteration    1(  32)  ---------------------------------------


    POTLOK:  cpu time    3.00: real time    3.00
    SETDIJ:  cpu time    0.00: real time    0.00
    EDDIAG:  cpu time    0.53: real time    0.53
  RMM-DIIS:  cpu time    1.82: real time    1.82
    ORTHCH:  cpu time    0.02: real time    0.03
       DOS:  cpu time    0.00: real time    0.00
    CHARGE:  cpu time    0.65: real time    0.65
    MIXING:  cpu time    0.09: real time    0.09
    --------------------------------------------
      LOOP:  cpu time    6.11: real time    6.12

 eigenvalue-minimisations  :    27
 total energy-change (2. order) :-0.2886736E-08  (-0.5599077E-11)
 number of electron   10.0000000 magnetization 
 augmentation part    -0.0091912 magnetization 

 Broyden mixing:
  rms(total) = 0.56789E-06    rms(broyden)= 0.56777E-06
  rms(prec ) = 0.98867E-06
  weight for this iteration     100.00

 eigenvalues of (default mixing * dielectric matrix)
  average eigenvalue GAMMA=   2.5373
  8.7506  6.9215  5.5474  4.0451  3.3240  2.6961  2.6961  2.1740  2.1740  1.7824
  1.3829  1.3829  0.9091  0.9091  1.0509  1.0509  0.9918  0.9918  0.9822  0.9822

 Free energy of the ion-electron system (eV)
  ---------------------------------------------------
  alpha Z        PSCENC =         0.28152496
  Ewald energy   TEWEN  =       101.01608887
  -1/2 Hartree   DENC   =      -581.87572855
  -exchange  EXHF       =         0.00000000
  -V(xc)+E(xc)   XCENC  =        41.06602473
  PAW double counting   =       191.69731751     -196.04089720
  entropy T*S    EENTRO =         0.00000000
  eigenvalues    EBANDS =      -150.33482886
  atomic energy  EATOM  =       579.32078282
  ---------------------------------------------------
  free energy    TOTEN  =       -14.86971572 eV

  energy without entropy =      -14.86971572  energy(sigma->0) =      -14.86971572


--------------------------------------------------------------------------------------------------------




----------------------------------------- Iteration    1(  33)  ---------------------------------------


    POTLOK:  cpu time    2.99: real time    3.00
    SETDIJ:  cpu time    0.00: real time    0.00
    EDDIAG:  cpu time    0.53: real time    0.53
  RMM-DIIS:  cpu time    1.82: real time    1.82
    ORTHCH:  cpu time    0.03: real time    0.03
       DOS:  cpu time    0.00: real time    0.00
    CHARGE:  cpu time    0.64: real time    0.64
    MIXING:  cpu time    0.09: real time    0.10
    --------------------------------------------
      LOOP:  cpu time    6.11: real time    6.13

 eigenvalue-minimisations  :    27
 total energy-change (2. order) : 0.4536105E-09  ( 0.4753531E-11)
 number of electron   10.0000000 magnetization 
 augmentation part    -0.0091912 magnetization 

 Broyden mixing:
  rms(total) = 0.60394E-06    rms(broyden)= 0.60387E-06
  rms(prec ) = 0.10016E-05
  weight for this iteration     100.00

 eigenvalues of (default mixing * dielectric matrix)
[...]
  -exchange  EXHF       =         0.00000000
  -V(xc)+E(xc)   XCENC  =        41.06599045
  PAW double counting   =       191.69670901     -196.04028172
  entropy T*S    EENTRO =         0.00000000
  eigenvalues    EBANDS =      -150.33465529
  atomic energy  EATOM  =       579.32078282
  ---------------------------------------------------
  free energy    TOTEN  =       -14.86971573 eV

  energy without entropy =      -14.86971573  energy(sigma->0) =      -14.86971573


--------------------------------------------------------------------------------------------------------




----------------------------------------- Iteration   13(  14)  ---------------------------------------


    POTLOK:  cpu time    3.00: real time    3.01
    SETDIJ:  cpu time    0.00: real time    0.00
    EDDIAG:  cpu time    0.53: real time    0.53
  RMM-DIIS:  cpu time    1.81: real time    1.81
    ORTHCH:  cpu time    0.03: real time    0.03
       DOS:  cpu time    0.00: real time    0.00
    CHARGE:  cpu time    0.48: real time    0.49
    MIXING:  cpu time    0.09: real time    0.08
    --------------------------------------------
      LOOP:  cpu time    5.94: real time    5.95

 eigenvalue-minimisations  :    27
 total energy-change (2. order) :-0.4570438E-08  (-0.1018918E-10)
 number of electron   10.0000000 magnetization 
 augmentation part    -0.0091917 magnetization 

 Broyden mixing:
  rms(total) = 0.57585E-06    rms(broyden)= 0.57461E-06
  rms(prec ) = 0.11719E-05
  weight for this iteration     100.00

 eigenvalues of (default mixing * dielectric matrix)
  average eigenvalue GAMMA=   1.9157
  5.6641  3.4404  2.6056  2.5603  1.7969  1.7969  1.2823  1.0938  1.0938  0.8906
  0.8906  0.9860  0.8028

 Free energy of the ion-electron system (eV)
  ---------------------------------------------------
  alpha Z        PSCENC =         0.28152496
  Ewald energy   TEWEN  =       101.01503269
  -1/2 Hartree   DENC   =      -581.87483692
  -exchange  EXHF       =         0.00000000
  -V(xc)+E(xc)   XCENC  =        41.06599147
  PAW double counting   =       191.69673714     -196.04031015
  entropy T*S    EENTRO =         0.00000000
  eigenvalues    EBANDS =      -150.33463774
  atomic energy  EATOM  =       579.32078282
  ---------------------------------------------------
  free energy    TOTEN  =       -14.86971574 eV

  energy without entropy =      -14.86971574  energy(sigma->0) =      -14.86971574


--------------------------------------------------------------------------------------------------------




----------------------------------------- Iteration   13(  15)  ---------------------------------------


    POTLOK:  cpu time    3.01: real time    3.01
    SETDIJ:  cpu time    0.00: real time    0.00
    EDDIAG:  cpu time    0.53: real time    0.53
  RMM-DIIS:  cpu time    1.76: real time    1.76
    ORTHCH:  cpu time    0.04: real time    0.03
       DOS:  cpu time    0.00: real time    0.00
    CHARGE:  cpu time    0.49: real time    0.49
    MIXING:  cpu time    0.08: real time    0.08
    --------------------------------------------
      LOOP:  cpu time    5.91: real time    5.91

 eigenvalue-minimisations  :    26
 total energy-change (2. order) :-0.4667982E-09  (-0.4387601E-11)
 number of electron   10.0000000 magnetization 
 augmentation part    -0.0091917 magnetization 

 Broyden mixing:
  rms(total) = 0.51852E-06    rms(broyden)= 0.51817E-06
  rms(prec ) = 0.11102E-05
  weight for this iteration     100.00

 eigenvalues of (default mixing * dielectric matrix)
  average eigenvalue GAMMA=   1.8064
  5.6815  3.4218  2.7636  2.5086  1.7990  1.7990  1.2493  1.0928  1.0928  0.8906
  0.8906  0.9907  0.8206  0.2887

 Free energy of the ion-electron system (eV)
  ---------------------------------------------------
  alpha Z        PSCENC =         0.28152496
  Ewald energy   TEWEN  =       101.01503269
  -1/2 Hartree   DENC   =      -581.87484028
  -exchange  EXHF       =         0.00000000
  -V(xc)+E(xc)   XCENC  =        41.06599168
  PAW double counting   =       191.69674265     -196.04031574
  entropy T*S    EENTRO =         0.00000000
  eigenvalues    EBANDS =      -150.33463452
  atomic energy  EATOM  =       579.32078282
  ---------------------------------------------------
  free energy    TOTEN  =       -14.86971574 eV

  energy without entropy =      -14.86971574  energy(sigma->0) =      -14.86971574


--------------------------------------------------------------------------------------------------------




----------------------------------------- Iteration   13(  16)  ---------------------------------------


    POTLOK:  cpu time    3.01: real time    3.01
    SETDIJ:  cpu time    0.00: real time    0.00
    EDDIAG:  cpu time    0.53: real time    0.53
  RMM-DIIS:  cpu time    1.80: real time    1.79
    ORTHCH:  cpu time    0.04: real time    0.04
       DOS:  cpu time    0.00: real time    0.00
    --------------------------------------------
      LOOP:  cpu time    5.38: real time    5.38

 eigenvalue-minimisations  :    26
 total energy-change (2. order) : 0.1591616E-11  (-0.7922552E-12)
 number of electron   10.0000000 magnetization 
 augmentation part    -0.0091917 magnetization 

 Free energy of the ion-electron system (eV)
  ---------------------------------------------------
  alpha Z        PSCENC =         0.28152496
  Ewald energy   TEWEN  =       101.01503269
  -1/2 Hartree   DENC   =      -581.87483992
  -exchange  EXHF       =         0.00000000
  -V(xc)+E(xc)   XCENC  =        41.06599169
  PAW double counting   =       191.69674229     -196.04031538
  entropy T*S    EENTRO =         0.00000000
  eigenvalues    EBANDS =      -150.33463488
  atomic energy  EATOM  =       579.32078282
  ---------------------------------------------------
  free energy    TOTEN  =       -14.86971574 eV

  energy without entropy =      -14.86971574  energy(sigma->0) =      -14.86971574


--------------------------------------------------------------------------------------------------------




 average (electrostatic) potential at core
  the test charge radii are     0.5770  0.5955
  (the norm of the test charge is              1.0000)
       1 -88.7607       2-122.4763
 
 
 
 E-fermi :  -8.3883     XC(G=0):  -0.6475     alpha+bet : -0.1888
   add alpha+bet to get absolut eigen values

 k-point   1 :       0.0000    0.0000    0.0000
  band No.  band energies     occupation 
      1     -29.1049      2.00000
      2     -13.9533      2.00000
      3     -11.6144      2.00000
      4     -11.6140      2.00000
      5      -8.8807      2.00000
      6      -1.8899      0.00000
      7      -1.8880      0.00000
      8      -0.1959      0.00000
      9       1.0689      0.00000
     10       1.1947      0.00000
     11       1.2033      0.00000
     12       1.3369      0.00000
     13       1.3910      0.00000
     14       1.4357      0.00000
     15       2.4981      0.00000
     16       2.5608      0.00000


--------------------------------------------------------------------------------------------------------


 soft charge-density along one line, spin component           1
         0         1         2         3         4         5         6         7         8         9
 total charge-density along one line
 
 pseudopotential strength for first ion, spin component:           1
 12.824   0.009  -0.020   0.000   0.033   0.000   0.000  -0.001
  0.009  -0.001   0.000   0.000   0.000   0.000   0.000   0.000
 -0.020   0.000  -3.222   0.000  -0.017  -0.003   0.000   0.000
  0.000   0.000   0.000  -3.232   0.000   0.000  -0.003   0.000
  0.033   0.000  -0.017   0.000  -3.203   0.000   0.000  -0.003
  0.000   0.000  -0.003   0.000   0.000   0.010   0.000   0.000
  0.000   0.000   0.000  -0.003   0.000   0.000   0.010   0.000
 -0.001   0.000   0.000   0.000  -0.003   0.000   0.000   0.010
 total augmentation occupancy for first ion, spin component:           1
  1.840  -0.881   0.102   0.001  -0.171   0.446   0.002  -0.748
 -0.881   2.052   0.546   0.003  -0.918  -1.421  -0.007   2.386
  0.102   0.546   0.805   0.001  -0.388  -1.013  -0.002   0.574
  0.001   0.003   0.001   0.575  -0.002  -0.002  -0.669   0.003
 -0.171  -0.918  -0.388  -0.002   1.226   0.576   0.003  -1.637
  0.446  -1.421  -1.013  -0.002   0.576   1.646   0.004  -1.448
  0.002  -0.007  -0.002  -0.669   0.003   0.004   0.779  -0.008
 -0.748   2.386   0.574   0.003  -1.637  -1.448  -0.008   3.216


------------------------ aborting loop because EDIFF is reached ----------------------------------------




--------------------------------------------------------------------------------------------------------



  FREE ENERGIE OF THE ION-ELECTRON SYSTEM (eV)
  ---------------------------------------------------
  free  energy   TOTEN  =       -14.869716 eV

  energy  without entropy=      -14.869716  energy(sigma->0) =      -14.869716
 
    CHARGE:  cpu time    0.49: real time    0.49
    FORLOC:  cpu time    0.07: real time    0.07
    FORNL :  cpu time    0.72: real time    0.72
    STRESS:  cpu time    2.17: real time    2.17
    FORHAR:  cpu time    0.80: real time    0.80
    MIXING:  cpu time    0.09: real time    0.09

  FORCE on cell =-STRESS in cart. coord.  units (eV):
  Direction    XX          YY          ZZ          XY          YZ          ZX
  --------------------------------------------------------------------------------------
  Alpha Z     0.28152     0.28152     0.28152
  Ewald     157.91718    11.65451   -68.55672  -132.52286     0.40758    -0.68472
  Hartree   237.93407   186.16698   157.77392   -45.24681     0.13928    -0.23385
  E(xc)     -42.98720   -43.52506   -43.82007    -0.49578     0.00152    -0.00256
  Local    -584.13853  -395.22748  -291.62115   169.36267    -0.52100     0.87513
  n-local    -6.01908    -3.78404    -2.55927     2.05816    -0.00594     0.01072
  augment     0.62574     0.51252     0.45049    -0.10426     0.00032    -0.00054
  Kinetic   234.88436   242.45121   246.59938     6.97571    -0.02145     0.03604
  Fock        0.00000     0.00000     0.00000     0.00000     0.00000     0.00000
  -------------------------------------------------------------------------------------
  Total      -1.50194    -1.46984    -1.45189     0.02683     0.00031     0.00023
  in kB      -2.40638    -2.35495    -2.32619     0.04299     0.00050     0.00038
  external pressure =       -2.36 kB  Pullay stress =        0.00 kB


 VOLUME and BASIS-vectors are now :
 -----------------------------------------------------------------------------
  energy-cutoff  :      700.00
  volume of cell :     1000.00
      direct lattice vectors                 reciprocal lattice vectors
    10.000000000  0.000000000  0.000000000     0.100000000  0.000000000  0.000000000
     0.000000000 10.000000000  0.000000000     0.000000000  0.100000000  0.000000000
     0.000000000  0.000000000 10.000000000     0.000000000  0.000000000  0.100000000

  length of vectors
    10.000000000 10.000000000 10.000000000     0.100000000  0.100000000  0.100000000


 FORCES acting on ions
    electron-ion (+dipol)            ewald-force                    non-local-force                 convergence-correction
 -----------------------------------------------------------------------------------------------
   0.206E+03 -.123E+03 -.634E+00   -.229E+03 0.136E+03 0.704E+00   0.230E+02 -.137E+02 -.707E-01   -.132E-04 0.795E-05 -.593E-06
   -.185E+03 0.110E+03 0.569E+00   0.229E+03 -.136E+03 -.704E+00   -.441E+02 0.262E+02 0.136E+00   0.636E-05 -.363E-05 -.187E-05
 -----------------------------------------------------------------------------------------------
   0.211E+02 -.126E+02 -.649E-01   0.000E+00 0.000E+00 0.000E+00   -.211E+02 0.126E+02 0.652E-01   -.684E-05 0.431E-05 -.246E-05
 
 
 POSITION                                       TOTAL-FORCE (eV/Angst)
 -----------------------------------------------------------------------------------
      6.63458      4.46244      5.33333        -0.002618     -0.000577     -0.000250
      7.61033      3.88174      5.33033         0.002618      0.000577      0.000250
 -----------------------------------------------------------------------------------
    total drift:                               -0.001991      0.003196      0.000288
 d Force = 0.2288091E-07[-0.150E-05, 0.155E-05]  d Energy =-0.2406068E-08 0.253E-07
 d Force =-0.1301043E-17[ 0.422E-02,-0.422E-02]  d Ewald  = 0.0000000E+00 0.000E+00


--------------------------------------------------------------------------------------------------------


    POTLOK:  cpu time    3.02: real time    3.02


--------------------------------------------------------------------------------------------------------


 Finite differences progress:
  Degree of freedom:   6/  6
  Displacement:        2/  2
  Total:              12/ 12


--------------------------------------------------------------------------------------------------------


 INTERNAL STRAIN TENSORS FROM DISPLACED ATOMS
 ============================================

 INTERNAL STRAIN TENSOR FOR ION    1 for displacements in x,y,z  (eV/Angst):
          X           Y           Z          XY          YZ          ZX
  --------------------------------------------------------------------------------
  x    83.28675    29.23998    -0.30006   -49.63307     0.00000     0.00000
  y   -49.46812   -17.41654     0.23619    29.52637     0.00000     0.00000
  z     0.00000     0.00000     0.00000     0.00000     0.00235     0.04678

 INTERNAL STRAIN TENSOR FOR ION    2 for displacements in x,y,z  (eV/Angst):
          X           Y           Z          XY          YZ          ZX
  --------------------------------------------------------------------------------
  x   -83.11819   -29.22572     0.36108    49.36993     0.00000     0.00000
  y    49.16213    16.88193    -0.34945   -29.51117     0.00000     0.00000
  z     0.00000     0.00000     0.00000     0.00000    -0.10499    -0.07825


--------------------------------------------------------------------------------------------------------


 
 SECOND DERIVATIVES (NOT SYMMETRIZED)
 ------------------------------------
               1X          1Y          1Z          2X          2Y          2Z 
  1X   -84.246912   50.145255    0.000000   83.634794  -50.255465    0.000000
  1Y    50.115343  -29.888880    0.000000  -50.091018   29.971474    0.000000
  1Z     0.000000    0.000000   -0.027027    0.000000    0.000000    0.084564
  2X    84.246912  -50.145255    0.000000  -83.634794   50.255465    0.000000
  2Y   -50.115343   29.888880    0.000000   50.091018  -29.971474    0.000000
  2Z     0.000000    0.000000    0.027027    0.000000    0.000000   -0.084564
 
 
 Eigenvectors and eigenvalues of the dynamical matrix
 ----------------------------------------------------
 
 
   1 f  =   63.704928 THz   400.269866 2PiTHz 2124.967593 cm-1   263.462498 meV
             X         Y         Z           dx          dy          dz
      6.634584  4.462437  5.333330     0.649695   -0.387224    0.000000  
      7.610326  3.881743  5.333330    -0.561364    0.335893    0.000000  
 
   2 f  =    1.525540 THz     9.585252 2PiTHz   50.886544 cm-1     6.309130 meV
             X         Y         Z           dx          dy          dz
      6.634584  4.462437  5.333330    -0.744537   -0.410826    0.000000  
      7.610326  3.881743  5.333330    -0.335999    0.404959    0.000000  
 
   3 f  =    1.404313 THz     8.823557 2PiTHz   46.842826 cm-1     5.807772 meV
             X         Y         Z           dx          dy          dz
      6.634584  4.462437  5.333330     0.000000    0.000000   -0.568861  
      7.610326  3.881743  5.333330     0.000000    0.000000    0.822434  
 
   4 f/i=    0.022596 THz     0.141975 2PiTHz    0.753724 cm-1     0.093450 meV
             X         Y         Z           dx          dy          dz
      6.634584  4.462437  5.333330    -0.032311   -0.654582    0.000000  
      7.610326  3.881743  5.333330    -0.037255   -0.754381    0.000000  
 
   5 f/i=    0.361162 THz     2.269245 2PiTHz   12.047055 cm-1     1.493645 meV
             X         Y         Z           dx          dy          dz
      6.634584  4.462437  5.333330     0.000000    0.000000    0.822434  
      7.610326  3.881743  5.333330     0.000000    0.000000    0.568861  
 
   6 f/i=    1.694087 THz    10.644260 2PiTHz   56.508646 cm-1     7.006182 meV
             X         Y         Z           dx          dy          dz
      6.634584  4.462437  5.333330     0.150057   -0.502794    0.000000  
      7.610326  3.881743  5.333330     0.755372    0.392548    0.000000  
 


--------------------------------------------------------------------------------------------------------


  LATTYP: Found a simple cubic cell.
 ALAT       =    10.0000000000
  
  Lattice vectors:
  
 A1 = (  10.0000000000,   0.0000000000,   0.0000000000)
 A2 = (   0.0000000000,  10.0000000000,   0.0000000000)
 A3 = (   0.0000000000,   0.0000000000,  10.0000000000)
 Subroutine PRICEL returns:
 Original cell was already a primitive cell.
 

Analysis of symmetry for initial positions (statically):

 Routine SETGRP: Setting up the symmetry group for a 
 simple cubic supercell.


 Subroutine GETGRP returns: Found  2 space group operations
 (whereof  1 operations were pure point group operations)
 out of a pool of 48 trial point group operations.


The static configuration has the point symmetry C_1 .
 The point group associated with its full space group is C_1h.

Analysis of symmetry for dynamics (positions and initial velocities):

 Subroutine DYNSYM returns: Found  2 space group operations
 (whereof  1 operations were pure point group operations)
 out of a pool of  2 trial space group operations
 (whereof  1 operations were pure point group operations)
 and found also     1 'primitive' translations


The dynamic configuration has the point symmetry C_1 .
 The point group associated with its full space group is C_1h.
 
 KPOINTS: 1x1x1                                   

Automatic generation of k-mesh.
 
 Subroutine IBZKPT returns following result:
 ===========================================
 
 Found      1 irreducible k-points:
 
 Following reciprocal coordinates:
            Coordinates               Weight
  0.000000  0.000000  0.000000      1.000000
 
 Following cartesian coordinates:
            Coordinates               Weight
  0.000000  0.000000  0.000000      1.000000
 
 writing wavefunctions
     LOOP+:  cpu time  104.07: real time  104.30
    4ORBIT:  cpu time    0.00: real time    0.00

 total amount of memory used by VASP on root node 131398. kBytes
========================================================================

   base      :    30000. kBytes
   nonlr-proj:      554. kBytes
   fftplans  :    28138. kBytes
   grid      :    71352. kBytes
   one-center:        6. kBytes
   wavefun   :     1348. kBytes
 
  
  
 General timing and accounting informations for this job:
 ========================================================
  
                  Total CPU time used (sec):     1538.824
                            User time (sec):     1394.019
                          System time (sec):      144.805
                         Elapsed time (sec):     1544.435
  
                   Maximum memory used (kb):           0.
                   Average memory used (kb):           0.
  
                          Minor page faults:     11556092
                          Major page faults:           40
                 Voluntary context switches:        11434
