 vasp.5.2.11 25Nov10 complex 
 executed on             LinuxIFC date 2010.12.28  11:18:37
 running on    8 nodes
 distr:  one band on    1 nodes,    8 groups


--------------------------------------------------------------------------------------------------------


 INCAR:
 POTCAR:   PAW_PBE H 15Jun2001                    
 POTCAR:   PAW_PBE H 15Jun2001                    
   VRHFIN =H: ultrasoft test                                                    
   LEXCH  = PE                                                                  
   EATOM  =    12.4884 eV,     .9179 Ry                                         
                                                                                
   TITEL  = PAW_PBE H 15Jun2001                                                 
   LULTRA =        F    use ultrasoft PP ?                                      
   IUNSCR =        0    unscreen: 0-lin 1-nonlin 2-no                           
   RPACOR =     .000    partial core radius                                     
   POMASS =    1.000; ZVAL   =    1.000    mass and valenz                      
   RCORE  =    1.100    outmost cutoff radius                                   
   RWIGS  =     .700; RWIGS  =     .370    wigner-seitz radius (au A)           
   ENMAX  =  250.000; ENMIN  =  200.000 eV                                      
   RCLOC  =     .701    cutoff for local pot                                    
   LCOR   =        T    correct aug charges                                     
   LPAW   =        T    paw PP                                                  
   EAUG   =  400.000                                                            
   RMAX   =    2.174    core radius for proj-oper                               
   RAUG   =    1.200    factor for augmentation sphere                          
   RDEP   =    1.112    radius for radial grids                                 
   QCUT   =   -5.749; QGAM   =   11.498    optimization parameters              
                                                                                
   Description                                                                  
     l     E      TYP  RCUT    TYP  RCUT                                        
     0   .000     23  1.100                                                     
     0   .500     23  1.100                                                     
     1  -.300     23  1.100                                                     
  local pseudopotential read in
  atomic valenz-charges read in
  non local Contribution for L=           0  read in
    real space projection operators read in
  non local Contribution for L=           0  read in
    real space projection operators read in
  non local Contribution for L=           1  read in
    real space projection operators read in
    PAW grid and wavefunctions read in
 
   number of l-projection  operators is LMAX  =           3
   number of lm-projection operators is LMMAX =           5
 

 ----------------------------------------------------------------------------- 
|                                                                             |
|  ADVICE TO THIS USER RUNNING 'VASP/VAMP'   (HEAR YOUR MASTER'S VOICE ...):  |
|                                                                             |
|      You have a (more or less) 'small supercell' and for smaller cells      |
|      it is recommended  to use the reciprocal-space projection scheme!      |
|      The real space optimization is not  efficient for small cells and it   |
|      is also less accurate ...                                              |
|      Therefore set LREAL=.FALSE. in the  INCAR file                         |
|                                                                             |
 ----------------------------------------------------------------------------- 

 Optimization of the real space projectors (new method)

 maximal supplied QI-value         = 34.20
 optimisation between [QCUT,QGAM] = [ 22.57, 45.49] = [142.71,579.51] Ry 
 Optimized for a Real-space Cutoff    0.69 Angstroem

   l    n(q)    QCUT    max X(q) W(low)/X(q) W(high)/X(q)  e(spline) 
   0      9    22.575     4.436    0.17E-04    0.12E-04    0.13E-07
   0      9    22.575    16.131    0.13E-03    0.18E-03    0.15E-06
   1      9    22.575     4.654    0.23E-03    0.33E-04    0.13E-06
 PAW_PBE H 15Jun2001                    :
 energy of atom  1       EATOM=  -12.4884
 kinetic energy error for atom=    0.0000 (will be added to EATOM!!)
 
 
 POSCAR: H 2                                     
  positions in direct lattice
  velocities in cartesian coordinates
 exchange correlation table for  LEXCH =        8
   RHO(1)=    0.500       N(1)  =     2000
   RHO(2)=  100.500       N(2)  =     4000
 


--------------------------------------------------------------------------------------------------------


 ion  position               nearest neighbor table
   1  0.000  0.000  0.999-   2 0.75
   2  0.000  0.000  0.149-   1 0.75
 
  LATTYP: Found a simple cubic cell.
 ALAT       =     5.0000000000
  
  Lattice vectors:
  
 A1 = (   5.0000000000,   0.0000000000,   0.0000000000)
 A2 = (   0.0000000000,   5.0000000000,   0.0000000000)
 A3 = (   0.0000000000,   0.0000000000,   5.0000000000)
 Subroutine PRICEL returns:
 Original cell was already a primitive cell.
 

Analysis of symmetry for initial positions (statically):

 Routine SETGRP: Setting up the symmetry group for a 
 simple cubic supercell.


 Subroutine GETGRP returns: Found 16 space group operations
 (whereof  8 operations were pure point group operations)
 out of a pool of 48 trial point group operations.


The static configuration has the point symmetry C_4v.
 The point group associated with its full space group is D_4h.

Analysis of symmetry for dynamics (positions and initial velocities):

 Subroutine DYNSYM returns: Found 16 space group operations
 (whereof  8 operations were pure point group operations)
 out of a pool of 16 trial space group operations
 (whereof  8 operations were pure point group operations)
 and found also     1 'primitive' translations


The dynamic configuration has the point symmetry C_4v.
 The point group associated with its full space group is D_4h.
 
 
 KPOINTS: 8x8x8                                   

Automatic generation of k-mesh.
 
 Subroutine IBZKPT returns following result:
 ===========================================
 
 Found     40 irreducible k-points:
 
 Following reciprocal coordinates:
            Coordinates               Weight
  0.062500  0.062500  0.062500      8.000000
  0.187500  0.062500  0.062500     16.000000
  0.312500  0.062500  0.062500     16.000000
  0.437500  0.062500  0.062500     16.000000
  0.187500  0.187500  0.062500      8.000000
  0.312500  0.187500  0.062500     16.000000
  0.437500  0.187500  0.062500     16.000000
  0.312500  0.312500  0.062500      8.000000
  0.437500  0.312500  0.062500     16.000000
  0.437500  0.437500  0.062500      8.000000
  0.062500  0.062500  0.187500      8.000000
  0.187500  0.062500  0.187500     16.000000
  0.312500  0.062500  0.187500     16.000000
  0.437500  0.062500  0.187500     16.000000
  0.187500  0.187500  0.187500      8.000000
  0.312500  0.187500  0.187500     16.000000
  0.437500  0.187500  0.187500     16.000000
  0.312500  0.312500  0.187500      8.000000
  0.437500  0.312500  0.187500     16.000000
  0.437500  0.437500  0.187500      8.000000
  0.062500  0.062500  0.312500      8.000000
  0.187500  0.062500  0.312500     16.000000
  0.312500  0.062500  0.312500     16.000000
  0.437500  0.062500  0.312500     16.000000
  0.187500  0.187500  0.312500      8.000000
  0.312500  0.187500  0.312500     16.000000
  0.437500  0.187500  0.312500     16.000000
  0.312500  0.312500  0.312500      8.000000
  0.437500  0.312500  0.312500     16.000000
  0.437500  0.437500  0.312500      8.000000
  0.062500  0.062500  0.437500      8.000000
  0.187500  0.062500  0.437500     16.000000
  0.312500  0.062500  0.437500     16.000000
  0.437500  0.062500  0.437500     16.000000
  0.187500  0.187500  0.437500      8.000000
  0.312500  0.187500  0.437500     16.000000
  0.437500  0.187500  0.437500     16.000000
  0.312500  0.312500  0.437500      8.000000
  0.437500  0.312500  0.437500     16.000000
  0.437500  0.437500  0.437500      8.000000
 
 Following cartesian coordinates:
            Coordinates               Weight
  0.012500  0.012500  0.012500      8.000000
  0.037500  0.012500  0.012500     16.000000
  0.062500  0.012500  0.012500     16.000000
  0.087500  0.012500  0.012500     16.000000
  0.037500  0.037500  0.012500      8.000000
  0.062500  0.037500  0.012500     16.000000
  0.087500  0.037500  0.012500     16.000000
  0.062500  0.062500  0.012500      8.000000
  0.087500  0.062500  0.012500     16.000000
  0.087500  0.087500  0.012500      8.000000
  0.012500  0.012500  0.037500      8.000000
  0.037500  0.012500  0.037500     16.000000
  0.062500  0.012500  0.037500     16.000000
  0.087500  0.012500  0.037500     16.000000
  0.037500  0.037500  0.037500      8.000000
  0.062500  0.037500  0.037500     16.000000
  0.087500  0.037500  0.037500     16.000000
  0.062500  0.062500  0.037500      8.000000
  0.087500  0.062500  0.037500     16.000000
  0.087500  0.087500  0.037500      8.000000
  0.012500  0.012500  0.062500      8.000000
  0.037500  0.012500  0.062500     16.000000
  0.062500  0.012500  0.062500     16.000000
  0.087500  0.012500  0.062500     16.000000
  0.037500  0.037500  0.062500      8.000000
  0.062500  0.037500  0.062500     16.000000
  0.087500  0.037500  0.062500     16.000000
  0.062500  0.062500  0.062500      8.000000
  0.087500  0.062500  0.062500     16.000000
  0.087500  0.087500  0.062500      8.000000
  0.012500  0.012500  0.087500      8.000000
  0.037500  0.012500  0.087500     16.000000
  0.062500  0.012500  0.087500     16.000000
  0.087500  0.012500  0.087500     16.000000
  0.037500  0.037500  0.087500      8.000000
  0.062500  0.037500  0.087500     16.000000
  0.087500  0.037500  0.087500     16.000000
  0.062500  0.062500  0.087500      8.000000
  0.087500  0.062500  0.087500     16.000000
  0.087500  0.087500  0.087500      8.000000
 
 
 Subroutine IBZKPT_HF returns following result:
 ==============================================
 
 Found    512 k-points in 1st BZ
 the following    512 k-points will be used (e.g. in the exchange kernel)
 Following reciprocal coordinates:   # in IRBZ
  0.062500  0.062500  0.062500       1
  0.187500  0.062500  0.062500       2
  0.312500  0.062500  0.062500       3
  0.437500  0.062500  0.062500       4
  0.187500  0.187500  0.062500       5
  0.312500  0.187500  0.062500       6
  0.437500  0.187500  0.062500       7
  0.312500  0.312500  0.062500       8
  0.437500  0.312500  0.062500       9
  0.437500  0.437500  0.062500      10
  0.062500  0.062500  0.187500      11
  0.187500  0.062500  0.187500      12
  0.312500  0.062500  0.187500      13
  0.437500  0.062500  0.187500      14
  0.187500  0.187500  0.187500      15
  0.312500  0.187500  0.187500      16
  0.437500  0.187500  0.187500      17
  0.312500  0.312500  0.187500      18
  0.437500  0.312500  0.187500      19
  0.437500  0.437500  0.187500      20
  0.062500  0.062500  0.312500      21
  0.187500  0.062500  0.312500      22
  0.312500  0.062500  0.312500      23
  0.437500  0.062500  0.312500      24
  0.187500  0.187500  0.312500      25
  0.312500  0.187500  0.312500      26
  0.437500  0.187500  0.312500      27
  0.312500  0.312500  0.312500      28
  0.437500  0.312500  0.312500      29
  0.437500  0.437500  0.312500      30
  0.062500  0.062500  0.437500      31
  0.187500  0.062500  0.437500      32
  0.312500  0.062500  0.437500      33
  0.437500  0.062500  0.437500      34
  0.187500  0.187500  0.437500      35
  0.312500  0.187500  0.437500      36
  0.437500  0.187500  0.437500      37
  0.312500  0.312500  0.437500      38
  0.437500  0.312500  0.437500      39
  0.437500  0.437500  0.437500      40
 -0.062500  0.062500  0.062500       1
 -0.062500 -0.062500  0.062500       1
  0.062500 -0.062500  0.062500       1
 -0.062500 -0.062500 -0.062500       1
  0.062500 -0.062500 -0.062500       1
  0.062500  0.062500 -0.062500       1
 -0.062500  0.062500 -0.062500       1
 -0.062500  0.187500  0.062500       2
 -0.187500 -0.062500  0.062500       2
  0.062500 -0.187500  0.062500       2
 -0.187500  0.062500  0.062500       2
 -0.062500 -0.187500  0.062500       2
  0.187500 -0.062500  0.062500       2
  0.062500  0.187500  0.062500       2
 -0.187500 -0.062500 -0.062500       2
  0.062500 -0.187500 -0.062500       2
  0.187500  0.062500 -0.062500       2
 -0.062500  0.187500 -0.062500       2
  0.187500 -0.062500 -0.062500       2
  0.062500  0.187500 -0.062500       2
 -0.187500  0.062500 -0.062500       2
 -0.062500 -0.187500 -0.062500       2
 -0.062500  0.312500  0.062500       3
 -0.312500 -0.062500  0.062500       3
  0.062500 -0.312500  0.062500       3
 -0.312500  0.062500  0.062500       3
 -0.062500 -0.312500  0.062500       3
  0.312500 -0.062500  0.062500       3
  0.062500  0.312500  0.062500       3
 -0.312500 -0.062500 -0.062500       3
  0.062500 -0.312500 -0.062500       3
  0.312500  0.062500 -0.062500       3
 -0.062500  0.312500 -0.062500       3
  0.312500 -0.062500 -0.062500       3
  0.062500  0.312500 -0.062500       3
 -0.312500  0.062500 -0.062500       3
 -0.062500 -0.312500 -0.062500       3
 -0.062500  0.437500  0.062500       4
 -0.437500 -0.062500  0.062500       4
  0.062500 -0.437500  0.062500       4
 -0.437500  0.062500  0.062500       4
 -0.062500 -0.437500  0.062500       4
  0.437500 -0.062500  0.062500       4
  0.062500  0.437500  0.062500       4
 -0.437500 -0.062500 -0.062500       4
  0.062500 -0.437500 -0.062500       4
  0.437500  0.062500 -0.062500       4
 -0.062500  0.437500 -0.062500       4
  0.437500 -0.062500 -0.062500       4
  0.062500  0.437500 -0.062500       4
 -0.437500  0.062500 -0.062500       4
 -0.062500 -0.437500 -0.062500       4
 -0.187500  0.187500  0.062500       5
 -0.187500 -0.187500  0.062500       5
  0.187500 -0.187500  0.062500       5
 -0.187500 -0.187500 -0.062500       5
  0.187500 -0.187500 -0.062500       5
  0.187500  0.187500 -0.062500       5
 -0.187500  0.187500 -0.062500       5
 -0.187500  0.312500  0.062500       6
 -0.312500 -0.187500  0.062500       6
  0.187500 -0.312500  0.062500       6
 -0.312500  0.187500  0.062500       6
 -0.187500 -0.312500  0.062500       6
  0.312500 -0.187500  0.062500       6
  0.187500  0.312500  0.062500       6
 -0.312500 -0.187500 -0.062500       6
  0.187500 -0.312500 -0.062500       6
  0.312500  0.187500 -0.062500       6
 -0.187500  0.312500 -0.062500       6
  0.312500 -0.187500 -0.062500       6
  0.187500  0.312500 -0.062500       6
 -0.312500  0.187500 -0.062500       6
 -0.187500 -0.312500 -0.062500       6
 -0.187500  0.437500  0.062500       7
 -0.437500 -0.187500  0.062500       7
  0.187500 -0.437500  0.062500       7
 -0.437500  0.187500  0.062500       7
 -0.187500 -0.437500  0.062500       7
  0.437500 -0.187500  0.062500       7
  0.187500  0.437500  0.062500       7
 -0.437500 -0.187500 -0.062500       7
  0.187500 -0.437500 -0.062500       7
  0.437500  0.187500 -0.062500       7
 -0.187500  0.437500 -0.062500       7
  0.437500 -0.187500 -0.062500       7
  0.187500  0.437500 -0.062500       7
 -0.437500  0.187500 -0.062500       7
 -0.187500 -0.437500 -0.062500       7
 -0.312500  0.312500  0.062500       8
 -0.312500 -0.312500  0.062500       8
  0.312500 -0.312500  0.062500       8
 -0.312500 -0.312500 -0.062500       8
  0.312500 -0.312500 -0.062500       8
  0.312500  0.312500 -0.062500       8
 -0.312500  0.312500 -0.062500       8
 -0.312500  0.437500  0.062500       9
 -0.437500 -0.312500  0.062500       9
  0.312500 -0.437500  0.062500       9
 -0.437500  0.312500  0.062500       9
 -0.312500 -0.437500  0.062500       9
  0.437500 -0.312500  0.062500       9
  0.312500  0.437500  0.062500       9
 -0.437500 -0.312500 -0.062500       9
  0.312500 -0.437500 -0.062500       9
  0.437500  0.312500 -0.062500       9
 -0.312500  0.437500 -0.062500       9
  0.437500 -0.312500 -0.062500       9
  0.312500  0.437500 -0.062500       9
 -0.437500  0.312500 -0.062500       9
 -0.312500 -0.437500 -0.062500       9
 -0.437500  0.437500  0.062500      10
 -0.437500 -0.437500  0.062500      10
  0.437500 -0.437500  0.062500      10
 -0.437500 -0.437500 -0.062500      10
  0.437500 -0.437500 -0.062500      10
  0.437500  0.437500 -0.062500      10
 -0.437500  0.437500 -0.062500      10
 -0.062500  0.062500  0.187500      11
 -0.062500 -0.062500  0.187500      11
  0.062500 -0.062500  0.187500      11
 -0.062500 -0.062500 -0.187500      11
  0.062500 -0.062500 -0.187500      11
  0.062500  0.062500 -0.187500      11
 -0.062500  0.062500 -0.187500      11
 -0.062500  0.187500  0.187500      12
 -0.187500 -0.062500  0.187500      12
  0.062500 -0.187500  0.187500      12
 -0.187500  0.062500  0.187500      12
 -0.062500 -0.187500  0.187500      12
  0.187500 -0.062500  0.187500      12
  0.062500  0.187500  0.187500      12
 -0.187500 -0.062500 -0.187500      12
  0.062500 -0.187500 -0.187500      12
  0.187500  0.062500 -0.187500      12
 -0.062500  0.187500 -0.187500      12
  0.187500 -0.062500 -0.187500      12
  0.062500  0.187500 -0.187500      12
 -0.187500  0.062500 -0.187500      12
 -0.062500 -0.187500 -0.187500      12
 -0.062500  0.312500  0.187500      13
 -0.312500 -0.062500  0.187500      13
  0.062500 -0.312500  0.187500      13
 -0.312500  0.062500  0.187500      13
 -0.062500 -0.312500  0.187500      13
  0.312500 -0.062500  0.187500      13
  0.062500  0.312500  0.187500      13
 -0.312500 -0.062500 -0.187500      13
  0.062500 -0.312500 -0.187500      13
  0.312500  0.062500 -0.187500      13
 -0.062500  0.312500 -0.187500      13
  0.312500 -0.062500 -0.187500      13
  0.062500  0.312500 -0.187500      13
 -0.312500  0.062500 -0.187500      13
 -0.062500 -0.312500 -0.187500      13
 -0.062500  0.437500  0.187500      14
 -0.437500 -0.062500  0.187500      14
  0.062500 -0.437500  0.187500      14
 -0.437500  0.062500  0.187500      14
 -0.062500 -0.437500  0.187500      14
  0.437500 -0.062500  0.187500      14
  0.062500  0.437500  0.187500      14
 -0.437500 -0.062500 -0.187500      14
  0.062500 -0.437500 -0.187500      14
  0.437500  0.062500 -0.187500      14
 -0.062500  0.437500 -0.187500      14
  0.437500 -0.062500 -0.187500      14
  0.062500  0.437500 -0.187500      14
 -0.437500  0.062500 -0.187500      14
 -0.062500 -0.437500 -0.187500      14
 -0.187500  0.187500  0.187500      15
 -0.187500 -0.187500  0.187500      15
  0.187500 -0.187500  0.187500      15
 -0.187500 -0.187500 -0.187500      15
  0.187500 -0.187500 -0.187500      15
  0.187500  0.187500 -0.187500      15
 -0.187500  0.187500 -0.187500      15
 -0.187500  0.312500  0.187500      16
 -0.312500 -0.187500  0.187500      16
  0.187500 -0.312500  0.187500      16
 -0.312500  0.187500  0.187500      16
 -0.187500 -0.312500  0.187500      16
  0.312500 -0.187500  0.187500      16
  0.187500  0.312500  0.187500      16
 -0.312500 -0.187500 -0.187500      16
  0.187500 -0.312500 -0.187500      16
  0.312500  0.187500 -0.187500      16
 -0.187500  0.312500 -0.187500      16
  0.312500 -0.187500 -0.187500      16
  0.187500  0.312500 -0.187500      16
 -0.312500  0.187500 -0.187500      16
 -0.187500 -0.312500 -0.187500      16
 -0.187500  0.437500  0.187500      17
 -0.437500 -0.187500  0.187500      17
  0.187500 -0.437500  0.187500      17
 -0.437500  0.187500  0.187500      17
 -0.187500 -0.437500  0.187500      17
  0.437500 -0.187500  0.187500      17
  0.187500  0.437500  0.187500      17
 -0.437500 -0.187500 -0.187500      17
  0.187500 -0.437500 -0.187500      17
  0.437500  0.187500 -0.187500      17
 -0.187500  0.437500 -0.187500      17
  0.437500 -0.187500 -0.187500      17
  0.187500  0.437500 -0.187500      17
 -0.437500  0.187500 -0.187500      17
 -0.187500 -0.437500 -0.187500      17
 -0.312500  0.312500  0.187500      18
 -0.312500 -0.312500  0.187500      18
  0.312500 -0.312500  0.187500      18
 -0.312500 -0.312500 -0.187500      18
  0.312500 -0.312500 -0.187500      18
  0.312500  0.312500 -0.187500      18
 -0.312500  0.312500 -0.187500      18
 -0.312500  0.437500  0.187500      19
 -0.437500 -0.312500  0.187500      19
  0.312500 -0.437500  0.187500      19
 -0.437500  0.312500  0.187500      19
 -0.312500 -0.437500  0.187500      19
  0.437500 -0.312500  0.187500      19
  0.312500  0.437500  0.187500      19
 -0.437500 -0.312500 -0.187500      19
  0.312500 -0.437500 -0.187500      19
  0.437500  0.312500 -0.187500      19
 -0.312500  0.437500 -0.187500      19
  0.437500 -0.312500 -0.187500      19
  0.312500  0.437500 -0.187500      19
 -0.437500  0.312500 -0.187500      19
 -0.312500 -0.437500 -0.187500      19
 -0.437500  0.437500  0.187500      20
 -0.437500 -0.437500  0.187500      20
  0.437500 -0.437500  0.187500      20
 -0.437500 -0.437500 -0.187500      20
  0.437500 -0.437500 -0.187500      20
  0.437500  0.437500 -0.187500      20
 -0.437500  0.437500 -0.187500      20
 -0.062500  0.062500  0.312500      21
 -0.062500 -0.062500  0.312500      21
  0.062500 -0.062500  0.312500      21
 -0.062500 -0.062500 -0.312500      21
  0.062500 -0.062500 -0.312500      21
  0.062500  0.062500 -0.312500      21
 -0.062500  0.062500 -0.312500      21
 -0.062500  0.187500  0.312500      22
 -0.187500 -0.062500  0.312500      22
  0.062500 -0.187500  0.312500      22
 -0.187500  0.062500  0.312500      22
 -0.062500 -0.187500  0.312500      22
  0.187500 -0.062500  0.312500      22
  0.062500  0.187500  0.312500      22
 -0.187500 -0.062500 -0.312500      22
  0.062500 -0.187500 -0.312500      22
  0.187500  0.062500 -0.312500      22
 -0.062500  0.187500 -0.312500      22
  0.187500 -0.062500 -0.312500      22
  0.062500  0.187500 -0.312500      22
 -0.187500  0.062500 -0.312500      22
 -0.062500 -0.187500 -0.312500      22
 -0.062500  0.312500  0.312500      23
 -0.312500 -0.062500  0.312500      23
  0.062500 -0.312500  0.312500      23
 -0.312500  0.062500  0.312500      23
 -0.062500 -0.312500  0.312500      23
  0.312500 -0.062500  0.312500      23
  0.062500  0.312500  0.312500      23
 -0.312500 -0.062500 -0.312500      23
  0.062500 -0.312500 -0.312500      23
  0.312500  0.062500 -0.312500      23
 -0.062500  0.312500 -0.312500      23
  0.312500 -0.062500 -0.312500      23
  0.062500  0.312500 -0.312500      23
 -0.312500  0.062500 -0.312500      23
 -0.062500 -0.312500 -0.312500      23
 -0.062500  0.437500  0.312500      24
 -0.437500 -0.062500  0.312500      24
  0.062500 -0.437500  0.312500      24
 -0.437500  0.062500  0.312500      24
 -0.062500 -0.437500  0.312500      24
  0.437500 -0.062500  0.312500      24
  0.062500  0.437500  0.312500      24
 -0.437500 -0.062500 -0.312500      24
  0.062500 -0.437500 -0.312500      24
  0.437500  0.062500 -0.312500      24
 -0.062500  0.437500 -0.312500      24
  0.437500 -0.062500 -0.312500      24
  0.062500  0.437500 -0.312500      24
 -0.437500  0.062500 -0.312500      24
 -0.062500 -0.437500 -0.312500      24
 -0.187500  0.187500  0.312500      25
 -0.187500 -0.187500  0.312500      25
  0.187500 -0.187500  0.312500      25
 -0.187500 -0.187500 -0.312500      25
  0.187500 -0.187500 -0.312500      25
  0.187500  0.187500 -0.312500      25
 -0.187500  0.187500 -0.312500      25
 -0.187500  0.312500  0.312500      26
 -0.312500 -0.187500  0.312500      26
  0.187500 -0.312500  0.312500      26
 -0.312500  0.187500  0.312500      26
 -0.187500 -0.312500  0.312500      26
  0.312500 -0.187500  0.312500      26
  0.187500  0.312500  0.312500      26
 -0.312500 -0.187500 -0.312500      26
  0.187500 -0.312500 -0.312500      26
  0.312500  0.187500 -0.312500      26
 -0.187500  0.312500 -0.312500      26
  0.312500 -0.187500 -0.312500      26
  0.187500  0.312500 -0.312500      26
 -0.312500  0.187500 -0.312500      26
 -0.187500 -0.312500 -0.312500      26
 -0.187500  0.437500  0.312500      27
 -0.437500 -0.187500  0.312500      27
  0.187500 -0.437500  0.312500      27
 -0.437500  0.187500  0.312500      27
 -0.187500 -0.437500  0.312500      27
  0.437500 -0.187500  0.312500      27
  0.187500  0.437500  0.312500      27
 -0.437500 -0.187500 -0.312500      27
  0.187500 -0.437500 -0.312500      27
  0.437500  0.187500 -0.312500      27
 -0.187500  0.437500 -0.312500      27
  0.437500 -0.187500 -0.312500      27
  0.187500  0.437500 -0.312500      27
 -0.437500  0.187500 -0.312500      27
 -0.187500 -0.437500 -0.312500      27
 -0.312500  0.312500  0.312500      28
 -0.312500 -0.312500  0.312500      28
  0.312500 -0.312500  0.312500      28
 -0.312500 -0.312500 -0.312500      28
  0.312500 -0.312500 -0.312500      28
  0.312500  0.312500 -0.312500      28
 -0.312500  0.312500 -0.312500      28
 -0.312500  0.437500  0.312500      29
 -0.437500 -0.312500  0.312500      29
  0.312500 -0.437500  0.312500      29
 -0.437500  0.312500  0.312500      29
 -0.312500 -0.437500  0.312500      29
  0.437500 -0.312500  0.312500      29
  0.312500  0.437500  0.312500      29
 -0.437500 -0.312500 -0.312500      29
  0.312500 -0.437500 -0.312500      29
  0.437500  0.312500 -0.312500      29
 -0.312500  0.437500 -0.312500      29
  0.437500 -0.312500 -0.312500      29
  0.312500  0.437500 -0.312500      29
 -0.437500  0.312500 -0.312500      29
 -0.312500 -0.437500 -0.312500      29
 -0.437500  0.437500  0.312500      30
 -0.437500 -0.437500  0.312500      30
  0.437500 -0.437500  0.312500      30
 -0.437500 -0.437500 -0.312500      30
  0.437500 -0.437500 -0.312500      30
  0.437500  0.437500 -0.312500      30
 -0.437500  0.437500 -0.312500      30
 -0.062500  0.062500  0.437500      31
 -0.062500 -0.062500  0.437500      31
  0.062500 -0.062500  0.437500      31
 -0.062500 -0.062500 -0.437500      31
  0.062500 -0.062500 -0.437500      31
  0.062500  0.062500 -0.437500      31
 -0.062500  0.062500 -0.437500      31
 -0.062500  0.187500  0.437500      32
 -0.187500 -0.062500  0.437500      32
  0.062500 -0.187500  0.437500      32
 -0.187500  0.062500  0.437500      32
 -0.062500 -0.187500  0.437500      32
  0.187500 -0.062500  0.437500      32
  0.062500  0.187500  0.437500      32
 -0.187500 -0.062500 -0.437500      32
  0.062500 -0.187500 -0.437500      32
  0.187500  0.062500 -0.437500      32
 -0.062500  0.187500 -0.437500      32
  0.187500 -0.062500 -0.437500      32
  0.062500  0.187500 -0.437500      32
 -0.187500  0.062500 -0.437500      32
 -0.062500 -0.187500 -0.437500      32
 -0.062500  0.312500  0.437500      33
 -0.312500 -0.062500  0.437500      33
  0.062500 -0.312500  0.437500      33
 -0.312500  0.062500  0.437500      33
 -0.062500 -0.312500  0.437500      33
  0.312500 -0.062500  0.437500      33
  0.062500  0.312500  0.437500      33
 -0.312500 -0.062500 -0.437500      33
  0.062500 -0.312500 -0.437500      33
  0.312500  0.062500 -0.437500      33
 -0.062500  0.312500 -0.437500      33
  0.312500 -0.062500 -0.437500      33
  0.062500  0.312500 -0.437500      33
 -0.312500  0.062500 -0.437500      33
 -0.062500 -0.312500 -0.437500      33
 -0.062500  0.437500  0.437500      34
 -0.437500 -0.062500  0.437500      34
  0.062500 -0.437500  0.437500      34
 -0.437500  0.062500  0.437500      34
 -0.062500 -0.437500  0.437500      34
  0.437500 -0.062500  0.437500      34
  0.062500  0.437500  0.437500      34
 -0.437500 -0.062500 -0.437500      34
  0.062500 -0.437500 -0.437500      34
  0.437500  0.062500 -0.437500      34
 -0.062500  0.437500 -0.437500      34
  0.437500 -0.062500 -0.437500      34
  0.062500  0.437500 -0.437500      34
 -0.437500  0.062500 -0.437500      34
 -0.062500 -0.437500 -0.437500      34
 -0.187500  0.187500  0.437500      35
 -0.187500 -0.187500  0.437500      35
  0.187500 -0.187500  0.437500      35
 -0.187500 -0.187500 -0.437500      35
  0.187500 -0.187500 -0.437500      35
  0.187500  0.187500 -0.437500      35
 -0.187500  0.187500 -0.437500      35
 -0.187500  0.312500  0.437500      36
 -0.312500 -0.187500  0.437500      36
  0.187500 -0.312500  0.437500      36
 -0.312500  0.187500  0.437500      36
 -0.187500 -0.312500  0.437500      36
  0.312500 -0.187500  0.437500      36
  0.187500  0.312500  0.437500      36
 -0.312500 -0.187500 -0.437500      36
  0.187500 -0.312500 -0.437500      36
  0.312500  0.187500 -0.437500      36
 -0.187500  0.312500 -0.437500      36
  0.312500 -0.187500 -0.437500      36
  0.187500  0.312500 -0.437500      36
 -0.312500  0.187500 -0.437500      36
 -0.187500 -0.312500 -0.437500      36
 -0.187500  0.437500  0.437500      37
 -0.437500 -0.187500  0.437500      37
  0.187500 -0.437500  0.437500      37
 -0.437500  0.187500  0.437500      37
 -0.187500 -0.437500  0.437500      37
  0.437500 -0.187500  0.437500      37
  0.187500  0.437500  0.437500      37
 -0.437500 -0.187500 -0.437500      37
  0.187500 -0.437500 -0.437500      37
  0.437500  0.187500 -0.437500      37
 -0.187500  0.437500 -0.437500      37
  0.437500 -0.187500 -0.437500      37
  0.187500  0.437500 -0.437500      37
 -0.437500  0.187500 -0.437500      37
 -0.187500 -0.437500 -0.437500      37
 -0.312500  0.312500  0.437500      38
 -0.312500 -0.312500  0.437500      38
  0.312500 -0.312500  0.437500      38
 -0.312500 -0.312500 -0.437500      38
  0.312500 -0.312500 -0.437500      38
  0.312500  0.312500 -0.437500      38
 -0.312500  0.312500 -0.437500      38
 -0.312500  0.437500  0.437500      39
 -0.437500 -0.312500  0.437500      39
  0.312500 -0.437500  0.437500      39
 -0.437500  0.312500  0.437500      39
 -0.312500 -0.437500  0.437500      39
  0.437500 -0.312500  0.437500      39
  0.312500  0.437500  0.437500      39
 -0.437500 -0.312500 -0.437500      39
  0.312500 -0.437500 -0.437500      39
  0.437500  0.312500 -0.437500      39
 -0.312500  0.437500 -0.437500      39
  0.437500 -0.312500 -0.437500      39
  0.312500  0.437500 -0.437500      39
 -0.437500  0.312500 -0.437500      39
 -0.312500 -0.437500 -0.437500      39
 -0.437500  0.437500  0.437500      40
 -0.437500 -0.437500  0.437500      40
  0.437500 -0.437500  0.437500      40
 -0.437500 -0.437500 -0.437500      40
  0.437500 -0.437500 -0.437500      40
  0.437500  0.437500 -0.437500      40
 -0.437500  0.437500 -0.437500      40


--------------------------------------------------------------------------------------------------------




 Dimension of arrays:
   k-points           NKPTS =     40   k-points in BZ     NKDIM =     40   number of bands    NBANDS=      8
   number of dos      NEDOS =    301   number of ions     NIONS =      2
   non local maximal  LDIM  =      3   non local SUM 2l+1 LMDIM =      5
   total plane-waves  NPLWV = 512000
   max r-space proj   IRMAX =   5806   max aug-charges    IRDMAX=  20105
   dimension x,y,z NGX =    80 NGY =   80 NGZ =   80
   dimension x,y,z NGXF=   160 NGYF=  160 NGZF=  160
   support grid    NGXF=   160 NGYF=  160 NGZF=  160
   ions per type =               2
 NGX,Y,Z   is equivalent  to a cutoff of  26.60, 26.60, 26.60 a.u.
 NGXF,Y,Z  is equivalent  to a cutoff of  53.20, 53.20, 53.20 a.u.


 I would recommend the setting:
   dimension x,y,z NGX =    73 NGY =   73 NGZ =   73
 SYSTEM =  idruro di alluminio                     
 POSCAR =  H 2                                     

 Startparameter for this run:
   NWRITE =      2    write-flag & timer
   PREC   = acc       normal or accurate (medium, high low for compatibility)
   ISTART =      0    job   : 0-new  1-cont  2-samecut
   ICHARG =      2    charge: 1-file 2-atom 10-const
   ISPIN  =      1    spin polarized calculation?
   LNONCOLLINEAR =      F non collinear calculations
   LSORBIT =      F    spin-orbit coupling
   INIWAV =      1    electr: 0-lowe 1-rand  2-diag
   LASPH  =      F    aspherical Exc in radial PAW
   METAGGA=      F    non-selfconsistent MetaGGA calc.

 Electronic Relaxation 1
   ENCUT  = 2000.0 eV 147.00 Ry   12.12 a.u.  18.23 18.23 18.23*2*pi/ulx,y,z
   ENINI  = 2000.0     initial cutoff
   ENAUG  =  400.0 eV  augmentation charge cutoff
   NELM   =     60;   NELMIN=  2; NELMDL=-12     # of ELM steps 
   EDIFF  = 0.3E-09   stopping-criterion for ELM
   LREAL  =      T    real-space projection
   LCOMPAT=      F    compatible to vasp.4.4
   GGA_COMPAT  = T    GGA compatible to vasp.4.4-vasp.4.6
   LMAXPAW     = -100 max onsite density
   LMAXMIX     =    2 max onsite mixed and CHGCAR
   VOSKOWN=      0    Vosko Wilk Nusair interpolation
   ROPT   =   -0.00025
 Ionic relaxation
   EDIFFG = 0.3E-08   stopping-criterion for IOM
   NSW    =     61    number of steps for IOM
   NBLOCK =      1;   KBLOCK =      1    inner block; outer block 
   IBRION =      6    ionic relax: 0-MD 1-quasi-New 2-CG
   NFREE  =      2    steps in history (QN), initial steepest desc. (CG)
   ISIF   =      2    stress and relaxation
   IWAVPR =     11    prediction:  0-non 1-charg 2-wave 3-comb
   ISYM   =      2    0-nonsym 1-usesym 2-fastsym
   LCORR  =      T    Harris-Foulkes like correction to forces

   POTIM  = 0.0030    time-step for ionic-motion
   TEIN   =    0.0    initial temperature
   TEBEG  =    0.0;   TEEND  =   0.0 temperature during run
   SMASS  =  -3.00    Nose mass-parameter (am)
   estimated Nose-frequenzy (Omega)   =  0.10E-29 period in steps =****** mass=  -0.571E-27a.u.
   NPACO  =    256;   APACO  = 16.0  distance and # of slots for P.C.
   PSTRESS=    0.0 pullay stress

  Mass of Ions in am
   POMASS =   1.00
  Ionic Valenz
   ZVAL   =   1.00
  Atomic Wigner-Seitz radii
   RWIGS  =  -1.00
  virtual crystal weights 
   VCA    =   1.00
   NELECT =       2.0000    total number of electrons
   NUPDOWN=      -1.0000    fix difference up-down

 DOS related values:
   EMIN   =  10.00;   EMAX   =-10.00  energy-range for DOS
   EFERMI =   0.00
   ISMEAR =     0;   SIGMA  =   0.10  broadening in eV -4-tet -1-fermi 0-gaus

 Electronic relaxation 2 (details)
   IALGO  =     48    algorithm
   LDIAG  =      T    sub-space diagonalisation (order eigenvalues)
   LSUBROT=      T    optimize rotation matrix (better conditioning)
   TURBO    =      0    0=normal 1=particle mesh
   IRESTART =      0    0=no restart 2=restart with 2 vectors
   NREBOOT  =      0    no. of reboots
   NMIN     =      0    reboot dimension
   EREF     =   0.00    reference energy to select bands
   IMIX   =      4    mixing-type and parameters
     AMIX     =   0.40;   BMIX     =  1.00
     AMIX_MAG =   1.60;   BMIX_MAG =  1.00
     AMIN     =   0.10
     WC   =   100.;   INIMIX=   1;  MIXPRE=   1

 Intra band minimization:
   WEIMIN = 0.0010     energy-eigenvalue tresh-hold
   EBREAK =  0.14E-10  absolut break condition
   DEPER  =   0.30     relativ break condition  

   TIME   =   0.40     timestep for ELM

  volume/ion in A,a.u.               =      62.50       421.77
  Fermi-wavevector in a.u.,A,eV,Ry     =   0.412523  0.779555  2.315374  0.170175
  Thomas-Fermi vector in A             =   1.369550
 
 Write flags
   LWAVE  =      T    write WAVECAR
   LCHARG =      T    write CHGCAR
   LVTOT  =      F    write LOCPOT, total local potential
   LVHAR  =      F    write LOCPOT, Hartree potential only
   LELF   =      F    write electronic localiz. function (ELF)
   LORBIT =      0    0 simple, 1 ext, 2 COOP (PROOUT)


 Dipole corrections
   LMONO  =      F    monopole corrections only (constant potential shift)
   LDIPOL =      F    correct potential (dipole corrections)
   IDIPOL =      0    1-x, 2-y, 3-z, 4-all directions 
   EPSILON=  1.0000000 bulk dielectric constant

 Exchange correlation treatment:
   GGA     =    --    GGA type
   LEXCH   =     8    internal setting for exchange type
   VOSKOWN=      0    Vosko Wilk Nusair interpolation
   LHFCALC =     F    Hartree Fock is set to
   LHFONE  =     F    Hartree Fock one center treatment
   AEXX    =    0.0000 exact exchange contribution

 Linear response parameters
   LEPSILON=     F    determine dielectric tensor
   LRPA    =     F    only Hartree local field effects (RPA)
   LNABLA  =     F    use nabla operator in PAW spheres
   LVEL    =     F    velocity operator in full k-point grid
   LINTERFAST=   F  fast interpolation
   KINTER  =     0    interpolate to denser k-point grid
   CSHIFT  =0.1000    complex shift for real part using Kramers Kronig
   OMEGAMAX=  -1.0    maximum frequency
   RTIME   =    0.100 relaxation time in fs

 Orbital magnetization related:
   ORBITALMAG=     F  switch on orbital magnetization
   LCHIMAG   =     F  perturbation theory with respect to B field



--------------------------------------------------------------------------------------------------------


 finite differences with symmetry
 charge density and potential will be updated during run
 non-spin polarized calculation
 RMM-DIIS sequential band-by-band
 perform sub-space diagonalisation
    before iterative eigenvector-optimisation
 modified Broyden-mixing scheme, WC =      100.0
 initial mixing is a Kerker type mixing with AMIX =  0.4000 and BMIX =      1.0000
 Hartree-type preconditioning will be used
 using additional bands            7
 real space projection scheme for non local part
 calculate Harris-corrections to forces 
   (improved forces if not selfconsistent)
 use gradient corrections 
 use of overlap-Matrix (Vanderbilt PP)
 Gauss-broadening in eV      SIGMA  =   0.10


--------------------------------------------------------------------------------------------------------


  energy-cutoff  :     2000.00
  volume of cell :      125.00
      direct lattice vectors                 reciprocal lattice vectors
     5.000000000  0.000000000  0.000000000     0.200000000  0.000000000  0.000000000
     0.000000000  5.000000000  0.000000000     0.000000000  0.200000000  0.000000000
     0.000000000  0.000000000  5.000000000     0.000000000  0.000000000  0.200000000

  length of vectors
     5.000000000  5.000000000  5.000000000     0.200000000  0.200000000  0.200000000


 
 k-points in units of 2pi/SCALE and weight: 8x8x8                                   
   0.01250000  0.01250000  0.01250000       0.016
   0.03750000  0.01250000  0.01250000       0.031
   0.06250000  0.01250000  0.01250000       0.031
   0.08750000  0.01250000  0.01250000       0.031
   0.03750000  0.03750000  0.01250000       0.016
   0.06250000  0.03750000  0.01250000       0.031
   0.08750000  0.03750000  0.01250000       0.031
   0.06250000  0.06250000  0.01250000       0.016
   0.08750000  0.06250000  0.01250000       0.031
   0.08750000  0.08750000  0.01250000       0.016
   0.01250000  0.01250000  0.03750000       0.016
   0.03750000  0.01250000  0.03750000       0.031
   0.06250000  0.01250000  0.03750000       0.031
   0.08750000  0.01250000  0.03750000       0.031
   0.03750000  0.03750000  0.03750000       0.016
   0.06250000  0.03750000  0.03750000       0.031
   0.08750000  0.03750000  0.03750000       0.031
   0.06250000  0.06250000  0.03750000       0.016
   0.08750000  0.06250000  0.03750000       0.031
   0.08750000  0.08750000  0.03750000       0.016
   0.01250000  0.01250000  0.06250000       0.016
   0.03750000  0.01250000  0.06250000       0.031
   0.06250000  0.01250000  0.06250000       0.031
   0.08750000  0.01250000  0.06250000       0.031
   0.03750000  0.03750000  0.06250000       0.016
   0.06250000  0.03750000  0.06250000       0.031
   0.08750000  0.03750000  0.06250000       0.031
   0.06250000  0.06250000  0.06250000       0.016
   0.08750000  0.06250000  0.06250000       0.031
   0.08750000  0.08750000  0.06250000       0.016
   0.01250000  0.01250000  0.08750000       0.016
   0.03750000  0.01250000  0.08750000       0.031
   0.06250000  0.01250000  0.08750000       0.031
   0.08750000  0.01250000  0.08750000       0.031
   0.03750000  0.03750000  0.08750000       0.016
   0.06250000  0.03750000  0.08750000       0.031
   0.08750000  0.03750000  0.08750000       0.031
   0.06250000  0.06250000  0.08750000       0.016
   0.08750000  0.06250000  0.08750000       0.031
   0.08750000  0.08750000  0.08750000       0.016
 
 k-points in reciprocal lattice and weights: 8x8x8                                   
   0.06250000  0.06250000  0.06250000       0.016
   0.18750000  0.06250000  0.06250000       0.031
   0.31250000  0.06250000  0.06250000       0.031
   0.43750000  0.06250000  0.06250000       0.031
   0.18750000  0.18750000  0.06250000       0.016
   0.31250000  0.18750000  0.06250000       0.031
   0.43750000  0.18750000  0.06250000       0.031
   0.31250000  0.31250000  0.06250000       0.016
   0.43750000  0.31250000  0.06250000       0.031
   0.43750000  0.43750000  0.06250000       0.016
   0.06250000  0.06250000  0.18750000       0.016
   0.18750000  0.06250000  0.18750000       0.031
   0.31250000  0.06250000  0.18750000       0.031
   0.43750000  0.06250000  0.18750000       0.031
   0.18750000  0.18750000  0.18750000       0.016
   0.31250000  0.18750000  0.18750000       0.031
   0.43750000  0.18750000  0.18750000       0.031
   0.31250000  0.31250000  0.18750000       0.016
   0.43750000  0.31250000  0.18750000       0.031
   0.43750000  0.43750000  0.18750000       0.016
   0.06250000  0.06250000  0.31250000       0.016
   0.18750000  0.06250000  0.31250000       0.031
   0.31250000  0.06250000  0.31250000       0.031
   0.43750000  0.06250000  0.31250000       0.031
   0.18750000  0.18750000  0.31250000       0.016
   0.31250000  0.18750000  0.31250000       0.031
   0.43750000  0.18750000  0.31250000       0.031
   0.31250000  0.31250000  0.31250000       0.016
   0.43750000  0.31250000  0.31250000       0.031
   0.43750000  0.43750000  0.31250000       0.016
   0.06250000  0.06250000  0.43750000       0.016
   0.18750000  0.06250000  0.43750000       0.031
   0.31250000  0.06250000  0.43750000       0.031
   0.43750000  0.06250000  0.43750000       0.031
   0.18750000  0.18750000  0.43750000       0.016
   0.31250000  0.18750000  0.43750000       0.031
   0.43750000  0.18750000  0.43750000       0.031
   0.31250000  0.31250000  0.43750000       0.016
   0.43750000  0.31250000  0.43750000       0.031
   0.43750000  0.43750000  0.43750000       0.016
 
 position of ions in fractional coordinates (direct lattice) 
   0.00000000  0.00000000  0.99896928
   0.00000000  0.00000000  0.14903072
 
 position of ions in cartesian coordinates  (Angst):
   0.00000000  0.00000000  4.99484641
   0.00000000  0.00000000  0.74515359
 


--------------------------------------------------------------------------------------------------------


 k-point  1 :  0.06250.06250.0625  plane waves:   25446
 k-point  2 :  0.18750.06250.0625  plane waves:   25381
 k-point  3 :  0.31250.06250.0625  plane waves:   25370
 k-point  4 :  0.43750.06250.0625  plane waves:   25360
 k-point  5 :  0.18750.18750.0625  plane waves:   25364
 k-point  6 :  0.31250.18750.0625  plane waves:   25403
 k-point  7 :  0.43750.18750.0625  plane waves:   25381
 k-point  8 :  0.31250.31250.0625  plane waves:   25392
 k-point  9 :  0.43750.31250.0625  plane waves:   25387
 k-point 10 :  0.43750.43750.0625  plane waves:   25431
 k-point 11 :  0.06250.06250.1875  plane waves:   25381
 k-point 12 :  0.18750.06250.1875  plane waves:   25364
 k-point 13 :  0.31250.06250.1875  plane waves:   25403
 k-point 14 :  0.43750.06250.1875  plane waves:   25381
 k-point 15 :  0.18750.18750.1875  plane waves:   25377
 k-point 16 :  0.31250.18750.1875  plane waves:   25388
 k-point 17 :  0.43750.18750.1875  plane waves:   25408
 k-point 18 :  0.31250.31250.1875  plane waves:   25377
 k-point 19 :  0.43750.31250.1875  plane waves:   25375
 k-point 20 :  0.43750.43750.1875  plane waves:   25391
 k-point 21 :  0.06250.06250.3125  plane waves:   25370
 k-point 22 :  0.18750.06250.3125  plane waves:   25403
 k-point 23 :  0.31250.06250.3125  plane waves:   25392
 k-point 24 :  0.43750.06250.3125  plane waves:   25387
 k-point 25 :  0.18750.18750.3125  plane waves:   25388
 k-point 26 :  0.31250.18750.3125  plane waves:   25377
 k-point 27 :  0.43750.18750.3125  plane waves:   25375
 k-point 28 :  0.31250.31250.3125  plane waves:   25347
 k-point 29 :  0.43750.31250.3125  plane waves:   25406
 k-point 30 :  0.43750.43750.3125  plane waves:   25388
 k-point 31 :  0.06250.06250.4375  plane waves:   25360
 k-point 32 :  0.18750.06250.4375  plane waves:   25381
 k-point 33 :  0.31250.06250.4375  plane waves:   25387
 k-point 34 :  0.43750.06250.4375  plane waves:   25431
 k-point 35 :  0.18750.18750.4375  plane waves:   25408
 k-point 36 :  0.31250.18750.4375  plane waves:   25375
 k-point 37 :  0.43750.18750.4375  plane waves:   25391
 k-point 38 :  0.31250.31250.4375  plane waves:   25406
 k-point 39 :  0.43750.31250.4375  plane waves:   25388
 k-point 40 :  0.43750.43750.4375  plane waves:   25392

 maximum and minimum number of plane-waves per node :     25446    25347

 maximum number of plane-waves:     25446
 maximum index in each direction: 
   IXMAX=   18   IYMAX=   18   IZMAX=   18
   IXMIN=  -18   IYMIN=  -18   IZMIN=  -18

 NGX is ok and might be reduce to  74
 NGY is ok and might be reduce to  74
 NGZ is ok and might be reduce to  74

 serial   3D FFT for wavefunctions
 parallel 3D FFT for charge:
    minimum data exchange during FFTs selected (reduces bandwidth)


 total amount of memory used by VASP on root node   111814. kBytes
========================================================================

   base      :      30000. kBytes
   nonlr-proj:        684. kBytes
   fftplans  :      19469. kBytes
   grid      :      45363. kBytes
   one-center:          2. kBytes
   wavefun   :      16296. kBytes
 
 Broyden mixing: mesh for mixing (old mesh)
   NGX = 37   NGY = 37   NGZ = 37
  (NGX  =160   NGY  =160   NGZ  =160)
  gives a total of  50653 points

 initial charge density was supplied:
 charge density of overlapping atoms calculated
 number of electron       2.0000000 magnetization 
 keeping initial charge density in first step


--------------------------------------------------------------------------------------------------------


 Maximum index for non-local projection operator         5558
 Maximum index for augmentation-charges         2345 (set IRDMAX)


--------------------------------------------------------------------------------------------------------


 First call to EWALD:  gamma=   0.354
 Maximum number of real-space cells 3x 3x 3
 Maximum number of reciprocal cells 3x 3x 3

    FEWALD:  cpu time    0.00: real time    0.00


----------------------------------------- Iteration    1(   1)  ---------------------------------------


    POTLOK:  cpu time    2.19: real time    2.19
    SETDIJ:  cpu time    0.00: real time    0.01
    EDDIAG:  cpu time    7.20: real time    7.20
  RMM-DIIS:  cpu time   15.01: real time   15.01
    ORTHCH:  cpu time    0.20: real time    0.19
       DOS:  cpu time    0.00: real time    0.00
    --------------------------------------------
      LOOP:  cpu time   24.61: real time   24.61

 eigenvalue-minimisations  :   320
 total energy-change (2. order) : 0.4520535E+01  (-0.2304915E+02)
 number of electron       2.0000000 magnetization 
 augmentation part        2.0000000 magnetization 

 Free energy of the ion-electron system (eV)
  ---------------------------------------------------
  alpha Z        PSCENC =         0.07795844
  Ewald energy   TEWEN  =         2.98965024
  -1/2 Hartree   DENC   =       -13.44112636
  -exchange  EXHF       =         0.00000000
  -V(xc)+E(xc)   XCENC  =         4.35077211
  PAW double counting   =         1.56265142       -1.58066687
  entropy T*S    EENTRO =        -0.00064441
  eigenvalues    EBANDS =       -14.41484354
  atomic energy  EATOM  =        24.97678373
  ---------------------------------------------------
  free energy    TOTEN  =         4.52053476 eV

  energy without entropy =        4.52117917  energy(sigma->0) =        4.52085696


--------------------------------------------------------------------------------------------------------


 E-fermi :  -5.1383     XC(G=0):  -2.6411     alpha+bet : -0.4418


 k-point   1 :       0.0625    0.0625    0.0625
  band No.  band energies     occupation 
      1      -7.6731      2.00000
      2       0.0526      0.00000
      3       8.8091      0.00000
      4      12.4460      0.00000
      5      17.5283      0.00000
      6      11.3896      0.00000
      7      24.9714      0.00000
      8      30.1875      0.00000

 k-point   2 :       0.1875    0.0625    0.0625
  band No.  band energies     occupation 
      1      -7.3888      2.00000
      2      -2.6489      0.00000
      3      10.0746      0.00000
      4      12.8325      0.00000
      5      16.8400      0.00000
      6      17.8668      0.00000
      7      23.8824      0.00000
      8      34.9751      0.00000

 k-point   3 :       0.3125    0.0625    0.0625
  band No.  band energies     occupation 
      1      -7.3225      2.00000
      2       0.7144      0.00000
      3      -1.6468      0.00000
      4      14.0929      0.00000
      5      15.8425      0.00000
      6      24.1844      0.00000
      7      29.0385      0.00000
      8      36.3130      0.00000

 k-point   4 :       0.4375    0.0625    0.0625
  band No.  band energies     occupation 
      1      -7.4581      2.00000
      2      -0.3235      0.00000
      3      -0.4824      0.00000
      4      14.8956      0.00000
      5      19.7983      0.00000
      6      22.0116      0.00000
      7      27.4774      0.00000
      8      35.2837      0.00000

 k-point   5 :       0.1875    0.1875    0.0625
  band No.  band energies     occupation 
      1      -7.0040      2.00000
      2      -3.3526      0.00000
      3       6.9203      0.00000
      4      10.2604      0.00000
      5      17.3818      0.00000
      6      20.1930      0.00000
      7      25.0748      0.00000
      8      38.0890      0.00000

 k-point   6 :       0.3125    0.1875    0.0625
  band No.  band energies     occupation 
      1      -6.6451      2.00000
      2      -1.4287      0.00000
      3       0.4339      0.00000
      4      13.2577      0.00000
      5      17.9886      0.00000
      6      21.4992      0.00000
      7      32.9267      0.00000
      8      33.9097      0.00000

 k-point   7 :       0.4375    0.1875    0.0625
  band No.  band energies     occupation 
      1      -6.4211      2.00000
      2      -4.3261      0.00000
      3       5.2245      0.00000
      4      10.8371      0.00000
      5       9.3071      0.00000
      6      18.6840      0.00000
      7      24.3636      0.00000
      8      34.4722      0.00000

 k-point   8 :       0.3125    0.3125    0.0625
  band No.  band energies     occupation 
      1      -7.2334      2.00000
      2       0.3728      0.00000
      3       1.1225      0.00000
      4       6.5952      0.00000
      5      11.4905      0.00000
      6      21.0878      0.00000
      7      26.2753      0.00000
      8      34.9435      0.00000

 k-point   9 :       0.4375    0.3125    0.0625
  band No.  band energies     occupation 
      1      -8.6595      2.00000
      2       1.5527      0.00000
      3       4.9694      0.00000
      4       6.2211      0.00000
      5      12.7396      0.00000
      6      17.5542      0.00000
      7      29.1047      0.00000
      8      33.9857      0.00000

 k-point  10 :       0.4375    0.4375    0.0625
  band No.  band energies     occupation 
      1      -7.9297      2.00000
      2      -0.0806      0.00000
      3       4.9975      0.00000
      4       8.4304      0.00000
      5      17.3098      0.00000
      6      18.0797      0.00000
      7      22.0293      0.00000
      8      30.6451      0.00000

 k-point  11 :       0.0625    0.0625    0.1875
  band No.  band energies     occupation 
      1      -7.6470      2.00000
      2      -0.1575      0.00000
      3       4.1487      0.00000
      4       9.0213      0.00000
      5      14.0319      0.00000
      6      20.1573      0.00000
      7      24.2786      0.00000
      8      36.9486      0.00000

 k-point  12 :       0.1875    0.0625    0.1875
  band No.  band energies     occupation 
      1      -6.9528      2.00000
      2      -2.5762      0.00000
      3       2.1675      0.00000
      4      15.0920      0.00000
      5      14.0534      0.00000
      6      21.0391      0.00000
      7      26.1342      0.00000
      8      34.8619      0.00000

 k-point  13 :       0.3125    0.0625    0.1875
  band No.  band energies     occupation 
      1      -7.1607      2.00000
      2      -4.2475      0.00000
      3       6.3198      0.00000
      4      13.1802      0.00000
      5      16.9205      0.00000
      6      23.5152      0.00000
      7      31.6668      0.00000
      8      34.2808      0.00000

 k-point  14 :       0.4375    0.0625    0.1875
  band No.  band energies     occupation 
      1      -6.7636      2.00000
      2       1.2456      0.00000
      3      -2.3580      0.00000
      4      10.9553      0.00000
      5      18.8539      0.00000
      6      21.7919      0.00000
      7      26.0677      0.00000
      8      29.1847      0.00000

 k-point  15 :       0.1875    0.1875    0.1875
  band No.  band energies     occupation 
      1      -7.5869      2.00000
      2      -0.4532      0.00000
      3       6.1550      0.00000
      4      11.5254      0.00000
      5      21.1665      0.00000
      6      18.3823      0.00000
      7      21.5827      0.00000
      8      33.4639      0.00000

 k-point  16 :       0.3125    0.1875    0.1875
  band No.  band energies     occupation 
      1      -5.8507      2.00000
      2      -3.4916      0.00000
      3       8.1125      0.00000
      4       9.5043      0.00000
      5      21.8242      0.00000
      6      20.4212      0.00000
      7      27.2041      0.00000
      8      34.8626      0.00000

 k-point  17 :       0.4375    0.1875    0.1875
  band No.  band energies     occupation 
      1      -6.5709      2.00000
      2      -3.4956      0.00000
      3       9.6097      0.00000
      4      10.4967      0.00000
      5      13.5035      0.00000
      6      12.1842      0.00000
      7      22.9375      0.00000
      8      31.3797      0.00000

 k-point  18 :       0.3125    0.3125    0.1875
  band No.  band energies     occupation 
      1      -7.4561      2.00000
      2       2.4228      0.00000
      3       1.8775      0.00000
      4       8.7363      0.00000
      5      13.8273      0.00000
      6      16.0067      0.00000
      7      29.4573      0.00000
      8      34.4775      0.00000

 k-point  19 :       0.4375    0.3125    0.1875
  band No.  band energies     occupation 
      1       0.5051      0.00000
      2      -8.8551      2.00000
      3       4.8785      0.00000
      4       9.2086      0.00000
      5      13.0900      0.00000
      6      15.4570      0.00000
      7      23.8757      0.00000
      8      32.7171      0.00000

 k-point  20 :       0.4375    0.4375    0.1875
  band No.  band energies     occupation 
      1      -8.6653      2.00000
      2       2.9937      0.00000
      3       5.4327      0.00000
      4       8.0383      0.00000
      5      15.7666      0.00000
      6      18.6033      0.00000
      7      26.9807      0.00000
      8      29.2081      0.00000

 k-point  21 :       0.0625    0.0625    0.3125
  band No.  band energies     occupation 
      1      -7.3609      2.00000
      2      -1.6070      0.00000
      3       5.1122      0.00000
      4      15.7589      0.00000
      5      20.8825      0.00000
      6      19.4241      0.00000
      7      24.0617      0.00000
      8      34.6146      0.00000

 k-point  22 :       0.1875    0.0625    0.3125
  band No.  band energies     occupation 
      1      -5.7690      2.00000
      2      -5.0080      0.06522
      3       5.7559      0.00000
      4       5.7260      0.00000
      5      15.5188      0.00000
      6      20.0697      0.00000
      7      28.8547      0.00000
      8      33.7484      0.00000

 k-point  23 :       0.3125    0.0625    0.3125
  band No.  band energies     occupation 
      1      -6.4429      2.00000
      2      -2.6963      0.00000
      3       2.4975      0.00000
      4       4.3828      0.00000
      5      19.7824      0.00000
      6      22.1324      0.00000
      7      26.7309      0.00000
      8      33.8140      0.00000

 k-point  24 :       0.4375    0.0625    0.3125
  band No.  band energies     occupation 
      1      -7.7217      2.00000
      2       0.4677      0.00000
      3       5.7689      0.00000
      4       7.3071      0.00000
      5      16.8187      0.00000
      6      20.0744      0.00000
      7      27.9914      0.00000
      8      36.7983      0.00000

 k-point  25 :       0.1875    0.1875    0.3125
  band No.  band energies     occupation 
      1      -6.7523      2.00000
      2      -3.4653      0.00000
      3       5.7247      0.00000
      4       6.3398      0.00000
      5      12.9674      0.00000
      6      18.6992      0.00000
      7      26.9874      0.00000
      8      31.2156      0.00000

 k-point  26 :       0.3125    0.1875    0.3125
  band No.  band energies     occupation 
      1      -6.7586      2.00000
      2      -3.0080      0.00000
      3       4.9620      0.00000
      4       3.9345      0.00000
      5      13.7455      0.00000
      6      20.7424      0.00000
      7      23.2569      0.00000
      8      42.8426      0.00000

 k-point  27 :       0.4375    0.1875    0.3125
  band No.  band energies     occupation 
      1      -5.2687      1.93478
      2      -3.6548      0.00000
      3       2.4516      0.00000
      4      15.9182      0.00000
      5      18.0646      0.00000
      6      23.5993      0.00000
      7      34.5470      0.00000
      8      37.8449      0.00000

 k-point  28 :       0.3125    0.3125    0.3125
  band No.  band energies     occupation 
      1      -7.0268      2.00000
      2      -0.2675      0.00000
      3       5.8868      0.00000
      4       9.4179      0.00000
      5       9.1374      0.00000
      6      17.7013      0.00000
      7      24.9690      0.00000
      8      35.2309      0.00000

 k-point  29 :       0.4375    0.3125    0.3125
  band No.  band energies     occupation 
      1      -7.3851      2.00000
      2       2.7131      0.00000
      3       1.9749      0.00000
      4       9.0630      0.00000
      5      13.7607      0.00000
      6      20.8064      0.00000
      7      25.3551      0.00000
      8      28.3506      0.00000

 k-point  30 :       0.4375    0.4375    0.3125
  band No.  band energies     occupation 
      1      -7.8448      2.00000
      2       2.1836      0.00000
      3       2.0802      0.00000
      4      13.3303      0.00000
      5      15.6491      0.00000
      6      24.2543      0.00000
      7      25.7665      0.00000
      8      33.2600      0.00000

 k-point  31 :       0.0625    0.0625    0.4375
  band No.  band energies     occupation 
      1      -5.9249      2.00000
      2      -4.4667      0.00000
      3       9.7241      0.00000
      4      14.8302      0.00000
      5      12.2749      0.00000
      6      16.6702      0.00000
      7      29.4932      0.00000
      8      33.8264      0.00000

 k-point  32 :       0.1875    0.0625    0.4375
  band No.  band energies     occupation 
      1      -6.5968      2.00000
      2      -0.7904      0.00000
      3      -0.3840      0.00000
      4      12.0124      0.00000
      5      14.3361      0.00000
      6      18.1101      0.00000
      7      24.3791      0.00000
      8      33.2713      0.00000

 k-point  33 :       0.3125    0.0625    0.4375
  band No.  band energies     occupation 
      1      -5.9808      2.00000
      2      -2.8071      0.00000
      3       3.7080      0.00000
      4       5.1686      0.00000
      5      15.1357      0.00000
      6      16.8273      0.00000
      7      23.7168      0.00000
      8      27.8178      0.00000

 k-point  34 :       0.4375    0.0625    0.4375
  band No.  band energies     occupation 
      1      -7.2224      2.00000
      2       1.1164      0.00000
      3       4.6159      0.00000
      4       7.8153      0.00000
      5      10.2954      0.00000
      6      21.3277      0.00000
      7      28.8117      0.00000
      8      42.0543      0.00000

 k-point  35 :       0.1875    0.1875    0.4375
  band No.  band energies     occupation 
      1      -8.7026      2.00000
      2      -0.8310      0.00000
      3       9.3049      0.00000
      4      14.8808      0.00000
      5      17.2023      0.00000
      6      17.7134      0.00000
      7      27.7794      0.00000
      8      34.0602      0.00000

 k-point  36 :       0.3125    0.1875    0.4375
  band No.  band energies     occupation 
      1      -8.2461      2.00000
      2       2.0611      0.00000
      3       4.0548      0.00000
      4       9.0711      0.00000
      5      15.7626      0.00000
      6      17.2804      0.00000
      7      24.3250      0.00000
      8      31.3593      0.00000

 k-point  37 :       0.4375    0.1875    0.4375
  band No.  band energies     occupation 
      1      -8.8384      2.00000
      2       3.1955      0.00000
      3       5.1823      0.00000
      4       9.1237      0.00000
      5      16.1682      0.00000
      6      20.8280      0.00000
      7      19.2522      0.00000
      8      28.8789      0.00000

 k-point  38 :       0.3125    0.3125    0.4375
  band No.  band energies     occupation 
      1      -8.2242      2.00000
      2       0.7465      0.00000
      3       6.0124      0.00000
      4      13.9805      0.00000
      5      14.9564      0.00000
      6      17.5944      0.00000
      7      21.7165      0.00000
      8      29.9379      0.00000

 k-point  39 :       0.4375    0.3125    0.4375
  band No.  band energies     occupation 
      1      -8.8941      2.00000
      2       5.1492      0.00000
      3       5.5654      0.00000
      4       6.0151      0.00000
      5      13.4331      0.00000
      6      20.9319      0.00000
      7      33.6634      0.00000
      8      36.2745      0.00000

 k-point  40 :       0.4375    0.4375    0.4375
  band No.  band energies     occupation 
      1      -5.9129      2.00000
      2       0.7095      0.00000
      3       4.0325      0.00000
      4       7.0013      0.00000
      5      12.2599      0.00000
      6      22.0847      0.00000
      7      28.0592      0.00000
      8      35.4664      0.00000


----------------------------------------- Iteration    1(   2)  ---------------------------------------


    EDDIAG:  cpu time    7.20: real time    7.19
  RMM-DIIS:  cpu time   15.01: real time   15.01
    ORTHCH:  cpu time    0.19: real time    0.19
       DOS:  cpu time    0.00: real time    0.00
    --------------------------------------------
      LOOP:  cpu time   22.40: real time   22.40

 eigenvalue-minimisations  :   320
 total energy-change (2. order) :-0.1063757E+02  (-0.5240614E+01)
 number of electron       2.0000000 magnetization 
 augmentation part        2.0000000 magnetization 

 Free energy of the ion-electron system (eV)
  ---------------------------------------------------
  alpha Z        PSCENC =         0.07795844
  Ewald energy   TEWEN  =         2.98965024
  -1/2 Hartree   DENC   =       -13.44112636
  -exchange  EXHF       =         0.00000000
  -V(xc)+E(xc)   XCENC  =         4.35077211
  PAW double counting   =         1.56265142       -1.58066687
  entropy T*S    EENTRO =         0.00000000
  eigenvalues    EBANDS =       -25.05305295
  atomic energy  EATOM  =        24.97678373
  ---------------------------------------------------
  free energy    TOTEN  =        -6.11703024 eV

  energy without entropy =       -6.11703024  energy(sigma->0) =       -6.11703024


--------------------------------------------------------------------------------------------------------


 E-fermi : -11.7100     XC(G=0):  -2.6411     alpha+bet : -0.4418


 k-point   1 :       0.0625    0.0625    0.0625
  band No.  band energies     occupation 
      1     -12.3152      2.00000
      2       0.6007      0.00000
      3       4.2175      0.00000
      4       4.6483      0.00000
      5       4.5018      0.00000
      6       9.2787      0.00000
      7      11.5351      0.00000
      8      13.2338      0.00000

 k-point   2 :       0.1875    0.0625    0.0625
  band No.  band energies     occupation 
      1     -12.2434      2.00000
      2      -0.5535      0.00000
      3       3.7795      0.00000
      4       3.7688      0.00000
      5       7.1821      0.00000
      6       7.2611      0.00000
      7      12.4388      0.00000
      8      13.4398      0.00000

 k-point   3 :       0.3125    0.0625    0.0625
  band No.  band energies     occupation 
      1     -12.4482      2.00000
      2      -0.4012      0.00000
      3       0.3373      0.00000
      4       5.6250      0.00000
      5       7.2005      0.00000
      6      10.4414      0.00000
      7      11.8166      0.00000
      8      14.7710      0.00000

 k-point   4 :       0.4375    0.0625    0.0625
  band No.  band energies     occupation 
      1     -12.4278      2.00000
      2      -0.4207      0.00000
      3       0.7008      0.00000
      4       5.8667      0.00000
      5       7.4237      0.00000
      6       8.5958      0.00000
      7      10.9396      0.00000
      8      15.0053      0.00000

 k-point   5 :       0.1875    0.1875    0.0625
  band No.  band energies     occupation 
      1     -12.2340      2.00000
      2      -0.9259      0.00000
      3       2.4292      0.00000
      4       4.4825      0.00000
      5       7.0670      0.00000
      6       6.8102      0.00000
      7       9.2187      0.00000
      8      16.2036      0.00000

 k-point   6 :       0.3125    0.1875    0.0625
  band No.  band energies     occupation 
      1     -12.5591      2.00000
      2      -0.6259      0.00000
      3       2.0158      0.00000
      4       5.0182      0.00000
      5       6.8023      0.00000
      6       6.6545      0.00000
      7      12.8398      0.00000
      8      15.9805      0.00000

 k-point   7 :       0.4375    0.1875    0.0625
  band No.  band energies     occupation 
      1     -12.5962      2.00000
      2      -0.1951      0.00000
      3       0.8475      0.00000
      4       4.3059      0.00000
      5       4.3396      0.00000
      6       7.2533      0.00000
      7      10.1694      0.00000
      8      13.4382      0.00000

 k-point   8 :       0.3125    0.3125    0.0625
  band No.  band energies     occupation 
      1     -12.5709      2.00000
      2      -0.2914      0.00000
      3       2.6126      0.00000
      4       1.9778      0.00000
      5       4.3317      0.00000
      6       9.2853      0.00000
      7      11.2475      0.00000
      8      16.2248      0.00000

 k-point   9 :       0.4375    0.3125    0.0625
  band No.  band energies     occupation 
      1     -12.6348      2.00000
      2       0.2049      0.00000
      3       1.7728      0.00000
      4       2.4301      0.00000
      5       5.0659      0.00000
      6       6.5084      0.00000
      7      14.0754      0.00000
      8      13.0542      0.00000

 k-point  10 :       0.4375    0.4375    0.0625
  band No.  band energies     occupation 
      1     -12.6411      2.00000
      2       0.5272      0.00000
      3       1.3956      0.00000
      4       2.8920      0.00000
      5       5.1282      0.00000
      6       8.1260      0.00000
      7       9.4462      0.00000
      8      13.2330      0.00000

 k-point  11 :       0.0625    0.0625    0.1875
  band No.  band energies     occupation 
      1     -12.3810      2.00000
      2      -0.7439      0.00000
      3       2.3318      0.00000
      4       4.4831      0.00000
      5       5.4605      0.00000
      6       9.2453      0.00000
      7      10.4775      0.00000
      8      16.7971      0.00000

 k-point  12 :       0.1875    0.0625    0.1875
  band No.  band energies     occupation 
      1     -12.5561      2.00000
      2      -0.9008      0.00000
      3       3.0015      0.00000
      4       4.8481      0.00000
      5       5.7022      0.00000
      6       9.7249      0.00000
      7       9.9255      0.00000
      8      14.8468      0.00000

 k-point  13 :       0.3125    0.0625    0.1875
  band No.  band energies     occupation 
      1     -12.3973      2.00000
      2      -0.7679      0.00000
      3       1.9039      0.00000
      4       4.9888      0.00000
      5       6.2519      0.00000
      6      10.8566      0.00000
      7      10.8790      0.00000
      8      13.3655      0.00000

 k-point  14 :       0.4375    0.0625    0.1875
  band No.  band energies     occupation 
      1     -12.5488      2.00000
      2      -0.0994      0.00000
      3      -0.1132      0.00000
      4       4.6889      0.00000
      5       7.1804      0.00000
      6      10.1932      0.00000
      7      12.5003      0.00000
      8      13.2508      0.00000

 k-point  15 :       0.1875    0.1875    0.1875
  band No.  band energies     occupation 
      1     -12.1849      2.00000
      2      -0.5316      0.00000
      3       1.8164      0.00000
      4       4.0629      0.00000
      5       4.6029      0.00000
      6      10.4158      0.00000
      7       9.0255      0.00000
      8      11.9389      0.00000

 k-point  16 :       0.3125    0.1875    0.1875
  band No.  band energies     occupation 
      1     -12.3886      2.00000
      2      -1.0801      0.00000
      3       3.6544      0.00000
      4       2.6876      0.00000
      5       8.1544      0.00000
      6       9.2010      0.00000
      7      11.6163      0.00000
      8      14.4481      0.00000

 k-point  17 :       0.4375    0.1875    0.1875
  band No.  band energies     occupation 
      1     -12.5045      2.00000
      2      -0.1766      0.00000
      3       3.9067      0.00000
      4       4.5125      0.00000
      5       3.9214      0.00000
      6       5.6340      0.00000
      7       9.9128      0.00000
      8      13.7086      0.00000

 k-point  18 :       0.3125    0.3125    0.1875
  band No.  band energies     occupation 
      1     -12.5641      2.00000
      2       0.4343      0.00000
      3       0.1379      0.00000
      4       3.5409      0.00000
      5       5.8737      0.00000
      6       5.4769      0.00000
      7      12.2510      0.00000
      8      14.9548      0.00000

 k-point  19 :       0.4375    0.3125    0.1875
  band No.  band energies     occupation 
      1     -12.5858      2.00000
      2       0.3169      0.00000
      3       1.2879      0.00000
      4       2.8047      0.00000
      5       5.3794      0.00000
      6       4.4779      0.00000
      7      10.4377      0.00000
      8      13.7886      0.00000

 k-point  20 :       0.4375    0.4375    0.1875
  band No.  band energies     occupation 
      1     -12.6611      2.00000
      2       1.0364      0.00000
      3       1.3614      0.00000
      4       2.5115      0.00000
      5       4.0996      0.00000
      6       6.3018      0.00000
      7      11.7324      0.00000
      8      11.2687      0.00000

 k-point  21 :       0.0625    0.0625    0.3125
  band No.  band energies     occupation 
      1     -12.1975      2.00000
      2      -0.8219      0.00000
      3       1.4448      0.00000
      4       6.6705      0.00000
      5       8.1873      0.00000
      6      10.2790      0.00000
      7      10.8107      0.00000
      8      12.5579      0.00000

 k-point  22 :       0.1875    0.0625    0.3125
  band No.  band energies     occupation 
      1     -12.6207      2.00000
      2      -1.0007      0.00000
      3       1.1300      0.00000
      4       3.1875      0.00000
      5       6.7453      0.00000
      6       8.8660      0.00000
      7      11.8188      0.00000
      8      13.0890      0.00000

 k-point  23 :       0.3125    0.0625    0.3125
  band No.  band energies     occupation 
      1     -12.4541      2.00000
      2      -0.3928      0.00000
      3       1.1558      0.00000
      4       2.3335      0.00000
      5       7.8543      0.00000
      6       8.8344      0.00000
      7      11.0768      0.00000
      8      15.5096      0.00000

 k-point  24 :       0.4375    0.0625    0.3125
  band No.  band energies     occupation 
      1     -12.5555      2.00000
      2      -0.1969      0.00000
      3       1.3971      0.00000
      4       2.6744      0.00000
      5       6.0335      0.00000
      6       8.7651      0.00000
      7      12.1323      0.00000
      8      15.8663      0.00000

 k-point  25 :       0.1875    0.1875    0.3125
  band No.  band energies     occupation 
      1     -12.4839      2.00000
      2      -0.7468      0.00000
      3       1.9556      0.00000
      4       1.7100      0.00000
      5       5.0321      0.00000
      6       7.4011      0.00000
      7      12.0221      0.00000
      8      14.0041      0.00000

 k-point  26 :       0.3125    0.1875    0.3125
  band No.  band energies     occupation 
      1     -12.5872      2.00000
      2      -0.2123      0.00000
      3       1.2691      0.00000
      4       3.2253      0.00000
      5       5.8638      0.00000
      6       8.0550      0.00000
      7      11.3048      0.00000
      8      18.6678      0.00000

 k-point  27 :       0.4375    0.1875    0.3125
  band No.  band energies     occupation 
      1     -12.6386      2.00000
      2       0.2673      0.00000
      3       1.8548      0.00000
      4       5.7605      0.00000
      5       6.9404      0.00000
      6       9.9831      0.00000
      7      14.6892      0.00000
      8      15.1519      0.00000

 k-point  28 :       0.3125    0.3125    0.3125
  band No.  band energies     occupation 
      1     -12.6229      2.00000
      2       0.6161      0.00000
      3       1.6412      0.00000
      4       1.5866      0.00000
      5       3.5610      0.00000
      6       6.6763      0.00000
      7      11.1409      0.00000
      8      15.9733      0.00000

 k-point  29 :       0.4375    0.3125    0.3125
  band No.  band energies     occupation 
      1     -12.6697      2.00000
      2       0.6822      0.00000
      3       1.2196      0.00000
      4       4.2407      0.00000
      5       4.8217      0.00000
      6       6.9276      0.00000
      7       8.6655      0.00000
      8      11.4194      0.00000

 k-point  30 :       0.4375    0.4375    0.3125
  band No.  band energies     occupation 
      1     -12.6748      2.00000
      2       2.2997      0.00000
      3       1.4966      0.00000
      4       4.5195      0.00000
      5       5.1454      0.00000
      6      10.5479      0.00000
      7      11.1441      0.00000
      8      15.8554      0.00000

 k-point  31 :       0.0625    0.0625    0.4375
  band No.  band energies     occupation 
      1     -12.5957      2.00000
      2      -0.9691      0.00000
      3       1.2536      0.00000
      4       5.1867      0.00000
      5       7.0737      0.00000
      6       7.7753      0.00000
      7      12.1599      0.00000
      8      13.7537      0.00000

 k-point  32 :       0.1875    0.0625    0.4375
  band No.  band energies     occupation 
      1     -12.5613      2.00000
      2      -0.9551      0.00000
      3       0.5300      0.00000
      4       5.2587      0.00000
      5       8.2413      0.00000
      6       7.3512      0.00000
      7       8.7229      0.00000
      8      14.1375      0.00000

 k-point  33 :       0.3125    0.0625    0.4375
  band No.  band energies     occupation 
      1     -12.6381      2.00000
      2      -0.2738      0.00000
      3       0.8001      0.00000
      4       1.8805      0.00000
      5       6.4314      0.00000
      6       8.4230      0.00000
      7       9.4814      0.00000
      8      12.4328      0.00000

 k-point  34 :       0.4375    0.0625    0.4375
  band No.  band energies     occupation 
      1     -12.5402      2.00000
      2       0.6094      0.00000
      3       1.1851      0.00000
      4       2.1496      0.00000
      5       2.2941      0.00000
      6      10.1931      0.00000
      7      11.5950      0.00000
      8      17.4317      0.00000

 k-point  35 :       0.1875    0.1875    0.4375
  band No.  band energies     occupation 
      1     -12.5823      2.00000
      2      -0.5805      0.00000
      3       4.0360      0.00000
      4       4.3176      0.00000
      5       7.5943      0.00000
      6       7.7077      0.00000
      7      11.8888      0.00000
      8      14.4179      0.00000

 k-point  36 :       0.3125    0.1875    0.4375
  band No.  band energies     occupation 
      1     -12.5811      2.00000
      2       0.2731      0.00000
      3       1.0181      0.00000
      4       3.2441      0.00000
      5       4.8091      0.00000
      6       7.6015      0.00000
      7      11.4202      0.00000
      8      13.2649      0.00000

 k-point  37 :       0.4375    0.1875    0.4375
  band No.  band energies     occupation 
      1     -12.5753      2.00000
      2       0.0521      0.00000
      3       2.1290      0.00000
      4       3.9234      0.00000
      5       3.8810      0.00000
      6       6.7369      0.00000
      7       8.4670      0.00000
      8      12.0409      0.00000

 k-point  38 :       0.3125    0.3125    0.4375
  band No.  band energies     occupation 
      1     -12.6360      2.00000
      2       0.4977      0.00000
      3       1.5551      0.00000
      4       5.0372      0.00000
      5       6.5160      0.00000
      6       5.6280      0.00000
[...]
      7       4.5896      0.00000
      8       5.4342      0.00000

 k-point  30 :       0.4375    0.4375    0.3125
  band No.  band energies     occupation 
      1     -10.0504      2.00000
      2       0.8799      0.00000
      3       1.4983      0.00000
      4       1.6263      0.00000
      5       2.9769      0.00000
      6       4.0103      0.00000
      7       4.1850      0.00000
      8       5.4798      0.00000

 k-point  31 :       0.0625    0.0625    0.4375
  band No.  band energies     occupation 
      1     -10.0815      2.00000
      2      -0.5528      0.00000
      3       1.3465      0.00000
      4       4.0030      0.00000
      5       4.1968      0.00000
      6       4.3869      0.00000
      7       5.6078      0.00000
      8       6.0107      0.00000

 k-point  32 :       0.1875    0.0625    0.4375
  band No.  band energies     occupation 
      1     -10.0755      2.00000
      2      -0.4103      0.00000
      3       1.2996      0.00000
      4       3.4694      0.00000
      5       3.6948      0.00000
      6       4.5453      0.00000
      7       5.3225      0.00000
      8       6.6145      0.00000

 k-point  33 :       0.3125    0.0625    0.4375
  band No.  band energies     occupation 
      1     -10.0669      2.00000
      2      -0.1544      0.00000
      3       1.1939      0.00000
      4       2.7959      0.00000
      5       3.2993      0.00000
      6       4.7707      0.00000
      7       5.4487      0.00000
      8       6.8630      0.00000

 k-point  34 :       0.4375    0.0625    0.4375
  band No.  band energies     occupation 
      1     -10.0609      2.00000
      2       0.1068      0.00000
      3       1.0666      0.00000
      4       2.2989      0.00000
      5       3.1751      0.00000
      6       4.9865      0.00000
      7       5.6514      0.00000
      8       6.5320      0.00000

 k-point  35 :       0.1875    0.1875    0.4375
  band No.  band energies     occupation 
      1     -10.0696      2.00000
      2      -0.2703      0.00000
      3       1.3231      0.00000
      4       3.0656      0.00000
      5       3.5067      0.00000
      6       4.5432      0.00000
      7       4.9545      0.00000
      8       6.7690      0.00000

 k-point  36 :       0.3125    0.1875    0.4375
  band No.  band energies     occupation 
      1     -10.0613      2.00000
      2      -0.0203      0.00000
      3       1.3088      0.00000
      4       2.7365      0.00000
      5       2.9960      0.00000
      6       4.4680      0.00000
      7       5.2188      0.00000
      8       5.9829      0.00000

 k-point  37 :       0.4375    0.1875    0.4375
  band No.  band energies     occupation 
      1     -10.0554      2.00000
      2       0.2310      0.00000
      3       1.2288      0.00000
      4       2.4682      0.00000
      5       2.7110      0.00000
      6       4.7139      0.00000
      7       5.2300      0.00000
      8       5.6340      0.00000

 k-point  38 :       0.3125    0.3125    0.4375
  band No.  band energies     occupation 
      1     -10.0532      2.00000
      2       0.2154      0.00000
      3       1.4732      0.00000
      4       2.3660      0.00000
      5       3.0676      0.00000
      6       3.8033      0.00000
      7       4.7818      0.00000
      8       5.9466      0.00000

 k-point  39 :       0.4375    0.3125    0.4375
  band No.  band energies     occupation 
      1     -10.0475      2.00000
      2       0.4438      0.00000
      3       1.5295      0.00000
      4       2.2521      0.00000
      5       2.8182      0.00000
      6       3.8821      0.00000
      7       4.2302      0.00000
      8       5.2680      0.00000

 k-point  40 :       0.4375    0.4375    0.4375
  band No.  band energies     occupation 
      1     -10.0419      2.00000
      2       0.6399      0.00000
      3       1.8464      0.00000
      4       2.0089      0.00000
      5       3.1914      0.00000
      6       3.4316      0.00000
      7       3.5359      0.00000
      8       4.4656      0.00000


--------------------------------------------------------------------------------------------------------


 soft charge-density along one line, spin component           1
         0         1         2         3         4         5         6         7         8         9
 total charge-density along one line
 
 pseudopotential strength for first ion, spin component:           1
 -2.341  -0.010   0.000  -0.002   0.000
 -0.010   0.049   0.000  -0.002   0.000
  0.000   0.000  -0.342   0.000   0.000
 -0.002  -0.002   0.000  -0.336   0.000
  0.000   0.000   0.000   0.000  -0.342
 total augmentation occupancy for first ion, spin component:           1
  1.657  -0.394   0.000   0.283   0.000
 -0.394   0.094   0.000  -0.067   0.000
  0.000   0.000   0.000   0.000   0.000
  0.283  -0.067   0.000   0.048   0.000
  0.000   0.000   0.000   0.000   0.000


------------------------ aborting loop because EDIFF is reached ----------------------------------------


    CHARGE:  cpu time    1.99: real time    1.99
    FORLOC:  cpu time    0.04: real time    0.04
    FORNL :  cpu time    9.98: real time    9.98
    STRESS:  cpu time   30.15: real time   30.15
    FORHAR:  cpu time    0.56: real time    0.56
    MIXING:  cpu time    0.06: real time    0.05

  FORCE on cell =-STRESS in cart. coord.  units (eV):
  Direction    XX          YY          ZZ          XY          YZ          ZX
  --------------------------------------------------------------------------------------
  Alpha Z     0.07796     0.07796     0.07796
  Ewald      -5.51278    -5.51278    13.93993     0.00000     0.00000     0.00000
  Hartree     5.80946     5.80946     8.21487     0.00000     0.00000     0.00000
  E(xc)      -5.96932    -5.96932    -5.74833     0.00000     0.00000     0.00000
  Local     -10.20581   -10.20581   -24.24499     0.00000     0.00000     0.00000
  n-local    -5.31515    -5.31563    -6.24977     0.00001     0.00001     0.00001
  augment     0.27821     0.27821     0.20807     0.00000     0.00000     0.00000
  Kinetic    20.90483    20.76476    13.71183     0.00308     0.00353     0.00386
  Fock        0.00000     0.00000     0.00000     0.00000     0.00000     0.00000
  -------------------------------------------------------------------------------------
  Total      -0.00287    -0.00287    -0.09043     0.00000     0.00000     0.00000
  in kB      -0.03681    -0.03681    -1.15910     0.00000     0.00000     0.00000
  external pressure =       -0.41 kB  Pullay stress =        0.00 kB


 VOLUME and BASIS-vectors are now :
 -----------------------------------------------------------------------------
  energy-cutoff  :     2000.00
  volume of cell :      125.00
      direct lattice vectors                 reciprocal lattice vectors
     5.000000000  0.000000000  0.000000000     0.200000000  0.000000000  0.000000000
     0.000000000  5.000000000  0.000000000     0.000000000  0.200000000  0.000000000
     0.000000000  0.000000000  5.000000000     0.000000000  0.000000000  0.200000000

  length of vectors
     5.000000000  5.000000000  5.000000000     0.200000000  0.200000000  0.200000000


 FORCES acting on ions
    electron-ion (+dipol)            ewald-force                    non-local-force                 convergence-correction
 -----------------------------------------------------------------------------------------------
   0.210E-15 -.227E-13 0.201E+02   -.220E-17 -.937E-17 -.250E+02   0.424E-21 -.424E-21 0.502E+01   -.472E-10 -.196E-16 0.354E-05
   0.142E-15 0.270E-13 -.201E+02   0.269E-17 0.229E-17 0.250E+02   0.000E+00 0.000E+00 -.502E+01   -.328E-10 0.206E-15 -.254E-05
 -----------------------------------------------------------------------------------------------
   0.352E-15 0.426E-14 0.732E-07   0.490E-18 -.708E-17 0.000E+00   0.424E-21 -.424E-21 0.266E-14   -.800E-10 0.187E-15 0.101E-05
 
 
 POSITION                                       TOTAL-FORCE (eV/Angst)
 -----------------------------------------------------------------------------------
      0.00000      0.00000      4.99185         0.000000      0.000000      0.114612
      0.00000      0.00000      0.74515         0.000000      0.000000     -0.114612
 -----------------------------------------------------------------------------------
    total drift:                                0.000000      0.000000      0.000001


--------------------------------------------------------------------------------------------------------



  FREE ENERGIE OF THE ION-ELECTRON SYSTEM (eV)
  ---------------------------------------------------
  free  energy   TOTEN  =        -6.774424 eV

  energy  without entropy=       -6.774424  energy(sigma->0) =       -6.774424
 
 d Force =-0.6403334E-04[-0.688E-03, 0.560E-03]  d Energy =-0.7073214E-04 0.670E-05
 d Force = 0.1511608E+00[ 0.150E+00, 0.152E+00]  d Ewald  = 0.1511559E+00 0.490E-05


--------------------------------------------------------------------------------------------------------


    POTLOK:  cpu time    2.19: real time    2.19


--------------------------------------------------------------------------------------------------------


 Finite differences progress:
  Degree of freedom:   2/  2
  Displacement:        2/  2
  Total:               4/  4


--------------------------------------------------------------------------------------------------------


 INTERNAL STRAIN TENSORS FROM DISPLACED ATOMS
 ============================================

 INTERNAL STRAIN TENSOR FOR ION    1 for displacements in x,y,z  (eV/Angst):
          X           Y           Z          XY          YZ          ZX
  --------------------------------------------------------------------------------
  x     0.00000     0.00000     0.00000     0.00000     0.00000     0.06277
  y     0.00000     0.00000     0.00000     0.00000     0.06276     0.00000
  z     0.07301     0.07301    26.07989     0.00000     0.00000     0.00000

 INTERNAL STRAIN TENSOR FOR ION    2 for displacements in x,y,z  (eV/Angst):
          X           Y           Z          XY          YZ          ZX
  --------------------------------------------------------------------------------
  x     0.00000     0.00000     0.00000     0.00000     0.00000    -0.06277
  y     0.00000     0.00000     0.00000     0.00000    -0.06276     0.00000
  z    -0.07301    -0.07301   -26.07989     0.00000     0.00000     0.00000


--------------------------------------------------------------------------------------------------------


 
 SECOND DERIVATIVES (NOT SYMMETRIZED)
 ------------------------------------
               1X          1Y          1Z          2X          2Y          2Z 
  1X    -0.013929    0.000000    0.000000    0.013929    0.000000    0.000000
  1Y     0.000000   -0.013929    0.000000    0.000000    0.013929    0.000000
  1Z     0.000000    0.000000  -34.646509    0.000000    0.000000   34.646509
  2X     0.013929    0.000000    0.000000   -0.013929    0.000000    0.000000
  2Y     0.000000    0.013929    0.000000    0.000000   -0.013929    0.000000
  2Z     0.000000    0.000000   34.646509    0.000000    0.000000  -34.646509
 
 
 Eigenvectors and eigenvalues of the dynamical matrix
 ----------------------------------------------------
 
 
   1 f  =  130.135402 THz   817.664847 2PiTHz 4340.849637 cm-1   538.196956 meV
             X         Y         Z           dx          dy          dz
      0.000000  0.000000  4.994846     0.000000    0.000000   -0.707107  
      0.000000  0.000000  0.745154     0.000000    0.000000    0.707107  
 
   2 f  =    2.609267 THz    16.394508 2PiTHz   87.035778 cm-1    10.791065 meV
             X         Y         Z           dx          dy          dz
      0.000000  0.000000  4.994846    -0.707107    0.000000    0.000000  
      0.000000  0.000000  0.745154     0.707107    0.000000    0.000000  
 
   3 f  =    2.609267 THz    16.394508 2PiTHz   87.035778 cm-1    10.791065 meV
             X         Y         Z           dx          dy          dz
      0.000000  0.000000  4.994846     0.000000    0.707107    0.000000  
      0.000000  0.000000  0.745154     0.000000   -0.707107    0.000000  
 
   4 f  =    0.000000 THz     0.000000 2PiTHz    0.000000 cm-1     0.000000 meV
             X         Y         Z           dx          dy          dz
      0.000000  0.000000  4.994846     0.707107    0.000000    0.000000  
      0.000000  0.000000  0.745154     0.707107    0.000000    0.000000  
 
   5 f  =    0.000000 THz     0.000000 2PiTHz    0.000000 cm-1     0.000000 meV
             X         Y         Z           dx          dy          dz
      0.000000  0.000000  4.994846     0.000000    0.000000    0.707107  
      0.000000  0.000000  0.745154     0.000000    0.000000    0.707107  
 
   6 f/i=    0.000000 THz     0.000002 2PiTHz    0.000011 cm-1     0.000001 meV
             X         Y         Z           dx          dy          dz
      0.000000  0.000000  4.994846     0.000000   -0.707107    0.000000  
      0.000000  0.000000  0.745154     0.000000   -0.707107    0.000000  
 


--------------------------------------------------------------------------------------------------------


  LATTYP: Found a simple cubic cell.
 ALAT       =     5.0000000000
  
  Lattice vectors:
  
 A1 = (   5.0000000000,   0.0000000000,   0.0000000000)
 A2 = (   0.0000000000,   5.0000000000,   0.0000000000)
 A3 = (   0.0000000000,   0.0000000000,   5.0000000000)
 Subroutine PRICEL returns:
 Original cell was already a primitive cell.
 

Analysis of symmetry for initial positions (statically):

 Routine SETGRP: Setting up the symmetry group for a 
 simple cubic supercell.


 Subroutine GETGRP returns: Found 16 space group operations
 (whereof  8 operations were pure point group operations)
 out of a pool of 48 trial point group operations.


The static configuration has the point symmetry C_4v.
 The point group associated with its full space group is D_4h.

Analysis of symmetry for dynamics (positions and initial velocities):

 Subroutine DYNSYM returns: Found 16 space group operations
 (whereof  8 operations were pure point group operations)
 out of a pool of 16 trial space group operations
 (whereof  8 operations were pure point group operations)
 and found also     1 'primitive' translations


The dynamic configuration has the point symmetry C_4v.
 The point group associated with its full space group is D_4h.
 
 KPOINTS: 8x8x8                                   

Automatic generation of k-mesh.
 
 Subroutine IBZKPT returns following result:
 ===========================================
 
 Found     40 irreducible k-points:
 
 Following reciprocal coordinates:
            Coordinates               Weight
  0.062500  0.062500  0.062500      8.000000
  0.187500  0.062500  0.062500     16.000000
  0.312500  0.062500  0.062500     16.000000
  0.437500  0.062500  0.062500     16.000000
  0.187500  0.187500  0.062500      8.000000
  0.312500  0.187500  0.062500     16.000000
  0.437500  0.187500  0.062500     16.000000
  0.312500  0.312500  0.062500      8.000000
  0.437500  0.312500  0.062500     16.000000
  0.437500  0.437500  0.062500      8.000000
  0.062500  0.062500  0.187500      8.000000
  0.187500  0.062500  0.187500     16.000000
  0.312500  0.062500  0.187500     16.000000
  0.437500  0.062500  0.187500     16.000000
  0.187500  0.187500  0.187500      8.000000
  0.312500  0.187500  0.187500     16.000000
  0.437500  0.187500  0.187500     16.000000
  0.312500  0.312500  0.187500      8.000000
  0.437500  0.312500  0.187500     16.000000
  0.437500  0.437500  0.187500      8.000000
  0.062500  0.062500  0.312500      8.000000
  0.187500  0.062500  0.312500     16.000000
  0.312500  0.062500  0.312500     16.000000
  0.437500  0.062500  0.312500     16.000000
  0.187500  0.187500  0.312500      8.000000
  0.312500  0.187500  0.312500     16.000000
  0.437500  0.187500  0.312500     16.000000
  0.312500  0.312500  0.312500      8.000000
  0.437500  0.312500  0.312500     16.000000
  0.437500  0.437500  0.312500      8.000000
  0.062500  0.062500  0.437500      8.000000
  0.187500  0.062500  0.437500     16.000000
  0.312500  0.062500  0.437500     16.000000
  0.437500  0.062500  0.437500     16.000000
  0.187500  0.187500  0.437500      8.000000
  0.312500  0.187500  0.437500     16.000000
  0.437500  0.187500  0.437500     16.000000
  0.312500  0.312500  0.437500      8.000000
  0.437500  0.312500  0.437500     16.000000
  0.437500  0.437500  0.437500      8.000000
 
 Following cartesian coordinates:
            Coordinates               Weight
  0.012500  0.012500  0.012500      8.000000
  0.037500  0.012500  0.012500     16.000000
  0.062500  0.012500  0.012500     16.000000
  0.087500  0.012500  0.012500     16.000000
  0.037500  0.037500  0.012500      8.000000
  0.062500  0.037500  0.012500     16.000000
  0.087500  0.037500  0.012500     16.000000
  0.062500  0.062500  0.012500      8.000000
  0.087500  0.062500  0.012500     16.000000
  0.087500  0.087500  0.012500      8.000000
  0.012500  0.012500  0.037500      8.000000
  0.037500  0.012500  0.037500     16.000000
  0.062500  0.012500  0.037500     16.000000
  0.087500  0.012500  0.037500     16.000000
  0.037500  0.037500  0.037500      8.000000
  0.062500  0.037500  0.037500     16.000000
  0.087500  0.037500  0.037500     16.000000
  0.062500  0.062500  0.037500      8.000000
  0.087500  0.062500  0.037500     16.000000
  0.087500  0.087500  0.037500      8.000000
  0.012500  0.012500  0.062500      8.000000
  0.037500  0.012500  0.062500     16.000000
  0.062500  0.012500  0.062500     16.000000
  0.087500  0.012500  0.062500     16.000000
  0.037500  0.037500  0.062500      8.000000
  0.062500  0.037500  0.062500     16.000000
  0.087500  0.037500  0.062500     16.000000
  0.062500  0.062500  0.062500      8.000000
  0.087500  0.062500  0.062500     16.000000
  0.087500  0.087500  0.062500      8.000000
  0.012500  0.012500  0.087500      8.000000
  0.037500  0.012500  0.087500     16.000000
  0.062500  0.012500  0.087500     16.000000
  0.087500  0.012500  0.087500     16.000000
  0.037500  0.037500  0.087500      8.000000
  0.062500  0.037500  0.087500     16.000000
  0.087500  0.037500  0.087500     16.000000
  0.062500  0.062500  0.087500      8.000000
  0.087500  0.062500  0.087500     16.000000
  0.087500  0.087500  0.087500      8.000000
 
 writing wavefunctions
     LOOP+:  cpu time  388.68: real time  389.53
    4ORBIT:  cpu time    0.00: real time    0.00

 total amount of memory used by VASP on root node   111814. kBytes
========================================================================

   base      :      30000. kBytes
   nonlr-proj:        684. kBytes
   fftplans  :      19469. kBytes
   grid      :      45363. kBytes
   one-center:          2. kBytes
   wavefun   :      16296. kBytes
 
  
  
 General timing and accounting informations for this job:
 ========================================================
  
                  Total CPU time used (sec):     3934.298
                            User time (sec):     3817.963
                          System time (sec):      116.335
                         Elapsed time (sec):     3939.880
  
                   Maximum memory used (kb):           0.
                   Average memory used (kb):           0.
  
                          Minor page faults:     12947728
                          Major page faults:           52
                 Voluntary context switches:         5249
