 vasp.4.6.35 3Apr08 complex 
 executed on             LinuxIFC date 2010.11.23  11:10:43
 running on    8 nodes
 distr:  one band on    1 nodes,    8 groups


--------------------------------------------------------------------------------------------------------


 INCAR:
 POTCAR:   PAW_PBE H_h 07Sep2000                  
 POTCAR:   PAW_PBE N_h 13Feb2001                  
 POTCAR:   PAW_PBE H_h 07Sep2000                  
   VRHFIN =H: ultrasoft test                                                    
   LEXCH  = PE                                                                  
   EATOM  =    12.4943 eV,     .9183 Ry                                         
                                                                                
   TITEL  = PAW_PBE H_h 07Sep2000                                               
   LULTRA =        F    use ultrasoft PP ?                                      
   IUNSCR =        0    unscreen: 0-lin 1-nonlin 2-no                           
   RPACOR =     .000    partial core radius                                     
   POMASS =    1.000; ZVAL   =    1.000    mass and valenz                      
   RCORE  =     .800    outmost cutoff radius                                   
   RWIGS  =     .700; RWIGS  =     .370    wigner-seitz radius (au A)           
   ENMAX  =  700.000; ENMIN  =  500.000 eV                                      
   RCLOC  =     .701    cutoff for local pot                                    
   LCOR   =        T    correct aug charges                                     
   LPAW   =        T    paw PP                                                  
   EAUG   = 1000.000                                                            
   RMAX   =    1.606    core radius for proj-oper                               
   RAUG   =    1.000    factor for augmentation sphere                          
   RDEP   =     .817    radius for radial grids                                 
   QCUT   =   -7.783; QGAM   =   15.567    optimization parameters              
                                                                                
   Description                                                                  
     l     E      TYP  RCUT    TYP  RCUT                                        
     0   .000     23   .800                                                     
     0   .500     23   .800                                                     
     1  -.500     23   .800                                                     
  local pseudopotential read in
  atomic valenz-charges read in
  non local Contribution for L=           0  read in
    real space projection operators read in
  non local Contribution for L=           0  read in
    real space projection operators read in
  non local Contribution for L=           1  read in
    real space projection operators read in
    PAW grid and wavefunctions read in
 
   number of l-projection  operators is LMAX  =           3
   number of lm-projection operators is LMMAX =           5
 
 POTCAR:   PAW_PBE N_h 13Feb2001                  
   VRHFIN =N: s2p3                                                              
   LEXCH  = PE                                                                  
   EATOM  =   264.5486 eV,   19.4438 Ry                                         
                                                                                
   TITEL  = PAW_PBE N_h 13Feb2001                                               
   LULTRA =        F    use ultrasoft PP ?                                      
   IUNSCR =        0    unscreen: 0-lin 1-nonlin 2-no                           
   RPACOR =     .000    partial core radius                                     
   POMASS =   14.001; ZVAL   =    5.000    mass and valenz                      
   RCORE  =    1.100    outmost cutoff radius                                   
   RWIGS  =    1.480; RWIGS  =     .783    wigner-seitz radius (au A)           
   ENMAX  =  755.582; ENMIN  =  566.687 eV                                      
   ICORE  =        2    local potential                                         
   LCOR   =        T    correct aug charges                                     
   LPAW   =        T    paw PP                                                  
   EAUG   =  904.640                                                            
   DEXC   =     .000                                                            
   RMAX   =    1.677    core radius for proj-oper                               
   RAUG   =    1.300    factor for augmentation sphere                          
   RDEP   =    1.115    radius for radial grids                                 
   QCUT   =   -7.452; QGAM   =   14.904    optimization parameters              
                                                                                
   Description                                                                  
     l     E      TYP  RCUT    TYP  RCUT                                        
     0   .000     23  1.100                                                     
     0   .000     23  1.100                                                     
     1   .000     23  1.100                                                     
     1   .000     23  1.100                                                     
     2   .000      7  1.100                                                     
  local pseudopotential read in
  atomic valenz-charges read in
  non local Contribution for L=           0  read in
    real space projection operators read in
  non local Contribution for L=           0  read in
    real space projection operators read in
  non local Contribution for L=           1  read in
    real space projection operators read in
  non local Contribution for L=           1  read in
    real space projection operators read in
    PAW grid and wavefunctions read in
 
   number of l-projection  operators is LMAX  =           4
   number of lm-projection operators is LMMAX =           8
 

 ----------------------------------------------------------------------------- 
|                                                                             |
|  ADVICE TO THIS USER RUNNING 'VASP/VAMP'   (HEAR YOUR MASTER'S VOICE ...):  |
|                                                                             |
|      You have a (more or less) 'small supercell' and for smaller cells      |
|      it is recommended  to use the reciprocal-space projection scheme!      |
|      The real space optimization is not  efficient for small cells and it   |
|      is also less accurate ...                                              |
|      Therefore set LREAL=.FALSE. in the  INCAR file                         |
|                                                                             |
 ----------------------------------------------------------------------------- 

 Optimization of the real space projectors (new method)

 maximal supplied QI-value         = 47.24
 optimisation between [QCUT,QGAM] = [ 16.06, 32.13] = [ 72.25,289.00] Ry 
 Optimized for a Real-space Cutoff    0.85 Angstroem

   l    n(q)    QCUT    max X(q) W(low)/X(q) W(high)/X(q)  e(spline) 
   0      8    16.063     3.731    0.22E-04    0.46E-04    0.40E-07
   0      8    16.063    31.371    0.22E-03    0.54E-03    0.26E-06
   1      8    16.063     1.978    0.22E-03    0.94E-04    0.18E-06
 Optimization of the real space projectors (new method)

 maximal supplied QI-value         = 34.20
 optimisation between [QCUT,QGAM] = [ 16.08, 32.15] = [ 72.37,289.48] Ry 
 Optimized for a Real-space Cutoff    0.82 Angstroem

   l    n(q)    QCUT    max X(q) W(low)/X(q) W(high)/X(q)  e(spline) 
   0      8    16.076     4.092    0.27E-04    0.70E-05    0.19E-07
   0      8    16.076   102.141    0.20E-03    0.24E-03    0.98E-07
   1      7    16.076     1.942    0.28E-04    0.18E-04    0.68E-07
   1      7    16.076    54.478    0.28E-04    0.27E-03    0.18E-06
 PAW_PBE H_h 07Sep2000                  :
 energy of atom  1       EATOM=  -12.4943
 kinetic energy error for atom=    0.0006 (will be added to EATOM!!)
 PAW_PBE N_h 13Feb2001                  :
 energy of atom  2       EATOM= -264.5486
 kinetic energy error for atom=    0.0081 (will be added to EATOM!!)
 
 EXHCAR: internal setup
 exchange correlation table for  LEXCH =        8
   RHO(1)=    0.500       N(1)  =     2000
   RHO(2)=  100.500       N(2)  =     4000
 
 POSCAR: H 3   N 1                               
  positions in direct lattice
  velocities in cartesian coordinates
 


--------------------------------------------------------------------------------------------------------


 ion  position               nearest neighbor table
   1  0.188  0.000  0.005-   4 1.02
   2  0.000  0.188  0.005-   4 1.02
   3  0.812  0.812  0.005-   4 1.02
   4  0.000  0.000  0.085-   2 1.02   3 1.02   1 1.02
 
  LATTYP: Found a hexagonal cell.
 ALAT       =     5.0000000000
 C/A-ratio  =     1.0000000000
  
  Lattice vectors:
  
 A1 = (   5.0000000000,   0.0000000000,   0.0000000000)
 A2 = (  -2.5000000000,   4.3301270189,   0.0000000000)
 A3 = (   0.0000000000,   0.0000000000,   5.0000000000)
 Subroutine PRICEL returns:
 Original cell was already a primitive cell.
 

Analysis of symmetry for initial positions (statically):

 Routine SETGRP: Setting up the symmetry group for a 
 hexagonal supercell.


 Subroutine GETGRP returns: Found  6 space group operations
 (whereof  6 operations were pure point group operations)
 out of a pool of 24 trial point group operations.


The static configuration has the point symmetry C_3v.

Analysis of symmetry for dynamics (positions and initial velocities):

 Subroutine DYNSYM returns: Found  6 space group operations
 (whereof  6 operations were pure point group operations)
 out of a pool of  6 trial space group operations
 (whereof  6 operations were pure point group operations)
 and found also     1 'primitive' translations


The dynamic configuration has the point symmetry C_3v.
 
 
 KPOINTS: 4x4x4                                   

Automatic generation of k-mesh.
 
 Subroutine IBZKPT returns following result:
 ===========================================
 
 Found     20 irreducible k-points:
 
 Following reciprocal coordinates:
            Coordinates               Weight
  0.125000  0.125000  0.125000     48.000000
  0.250000 -0.125000  0.125000     48.000000
  0.375000  0.125000  0.125000     96.000000
  0.500000 -0.375000  0.125000     96.000000
 -0.375000  0.125000  0.125000     96.000000
 -0.250000  0.375000  0.125000     96.000000
 -0.125000  0.125000  0.125000     96.000000
  0.375000  0.375000  0.125000     48.000000
 -0.250000 -0.375000  0.125000     48.000000
 -0.375000  0.375000  0.125000     96.000000
  0.125000  0.125000  0.375000     48.000000
  0.250000 -0.125000  0.375000     48.000000
  0.375000  0.125000  0.375000     96.000000
  0.500000 -0.375000  0.375000     96.000000
 -0.375000  0.125000  0.375000     96.000000
 -0.250000  0.375000  0.375000     96.000000
 -0.125000  0.125000  0.375000     96.000000
  0.375000  0.375000  0.375000     48.000000
 -0.250000 -0.375000  0.375000     48.000000
 -0.375000  0.375000  0.375000     96.000000
 
 Following cartesian coordinates:
            Coordinates               Weight
  0.025000  0.043301  0.025000     48.000000
  0.050000  0.000000  0.025000     48.000000
  0.075000  0.072169  0.025000     96.000000
  0.100000 -0.028868  0.025000     96.000000
 -0.075000 -0.014434  0.025000     96.000000
 -0.050000  0.057735  0.025000     96.000000
 -0.025000  0.014434  0.025000     96.000000
  0.075000  0.129904  0.025000     48.000000
 -0.050000 -0.115470  0.025000     48.000000
 -0.075000  0.043301  0.025000     96.000000
  0.025000  0.043301  0.075000     48.000000
  0.050000  0.000000  0.075000     48.000000
  0.075000  0.072169  0.075000     96.000000
  0.100000 -0.028868  0.075000     96.000000
 -0.075000 -0.014434  0.075000     96.000000
 -0.050000  0.057735  0.075000     96.000000
 -0.025000  0.014434  0.075000     96.000000
  0.075000  0.129904  0.075000     48.000000
 -0.050000 -0.115470  0.075000     48.000000
 -0.075000  0.043301  0.075000     96.000000
 


--------------------------------------------------------------------------------------------------------




 Dimension of arrays:
   k-Points           NKPTS =     20   number of bands    NBANDS=      8
   number of dos      NEDOS =    301   number of ions     NIONS =      4
   non local maximal  LDIM  =      4   non local SUM 2l+1 LMDIM =      8
   total plane-waves  NPLWV = 157464
   max r-space proj   IRMAX =   3761   max aug-charges    IRDMAX=  10530
   dimension x,y,z NGX =    54 NGY =   54 NGZ =   54
   dimension x,y,z NGXF=   108 NGYF=  108 NGZF=  108
   support grid    NGXF=   108 NGYF=  108 NGZF=  108
   ions per type =               3   1
 NGX,Y,Z   is equivalent  to a cutoff of  17.95, 17.95, 17.95 a.u.
 NGXF,Y,Z  is equivalent  to a cutoff of  35.91, 35.91, 35.91 a.u.


 I would recommend the setting:
   dimension x,y,z NGX =    52 NGY =   52 NGZ =   52
 SYSTEM =  ammoniaca con stesse tolleranze crystal 
 POSCAR =  H 3   N 1                               

 Startparameter for this run:
   NWRITE =      2    write-flag & timer
   PREC   = acc       medium, high low
   ISTART =      0    job   : 0-new  1-cont  2-samecut
   ICHARG =      2    charge: 1-file 2-atom 10-const
   ISPIN  =      1    spin polarized calculation?
   LNONCOLLINEAR =      F non collinear calculations
   LSORBIT =      F    spin-orbit coupling
   INIWAV =      1    electr: 0-lowe 1-rand  2-diag
   LASPH  =      F    aspherical Exc in radial PAW
   METAGGA=      F    non-selfconsistent MetaGGA calc.

 Electronic Relaxation 1
   ENCUT  = 1000.0 eV  73.50 Ry    8.57 a.u.  12.89 12.89 12.89*2*pi/ulx,y,z
   ENINI  = 1000.0     initial cutoff
   ENAUG  = 1000.0 eV  augmentation charge cutoff
   NELM   =     60;   NELMIN=  2; NELMDL=  0     # of ELM steps 
   EDIFF  = 0.1E-08   stopping-criterion for ELM
   LREAL  =      T    real-space projection
   LCOMPAT=      F    compatible to vasp.4.4
   LREAL_COMPAT= F    compatible to vasp.4.5.1-3
   GGA_COMPAT  = T    GGA compatible to vasp.4.4-vasp.4.6
   LMAXPAW     = -100 max onsite density
   LMAXMIX     =    2 max onsite mixed and CHGCAR
   VOSKOWN=      0    Vosko Wilk Nusair interpolation
   ROPT   =   -0.00025  -0.00025
 Ionic relaxation
   EDIFFG = 0.1E-07   stopping-criterion for IOM
   NSW    =     49    number of steps for IOM
   NBLOCK =      1;   KBLOCK =      1    inner block; outer block 
   IBRION =      5    ionic relax: 0-MD 1-quasi-New 2-CG
   NFREE  =      2    steps in history (QN), initial steepest desc. (CG)
   ISIF   =      2    stress and relaxation
   IWAVPR =     11    prediction:  0-non 1-charg 2-wave 3-comb
   ISYM   =      2    0-nonsym 1-usesym 2-fastsym
   LCORR  =      T    Harris-Foulkes like correction to forces

   POTIM  =   0.00    time-step for ionic-motion
   TEIN   =    0.0    initial temperature
   TEBEG  =    0.0;   TEEND  =   0.0 temperature during run
   SMASS  =  -3.00    Nose mass-parameter (am)
   estimated Nose-frequenzy (Omega)   =  0.10E-29 period in steps =****** mass=  -0.571E-27a.u.
   NPACO  =    256;   APACO  = 16.0  distance and # of slots for P.C.
   PSTRESS=    0.0 pullay stress

  Mass of Ions in am
   POMASS =   1.00 14.00
  Ionic Valenz
   ZVAL   =   1.00  5.00
  Atomic Wigner-Seitz radii
   RWIGS  =  -1.00 -1.00
   NELECT =       8.0000    total number of electrons
   NUPDOWN=      -1.0000    fix difference up-down

 DOS related values:
   EMIN   =  10.00;   EMAX   =-10.00  energy-range for DOS
   ISMEAR =     0;   SIGMA  =   0.10  broadening in eV -4-tet -1-fermi 0-gaus

 Electronic relaxation 2 (details)
   IALGO  =     48    algorithm
   LDIAG  =      T    sub-space diagonalisation
   IMIX   =      4    mixing-type and parameters
     AMIX     =   0.40;   BMIX     =  1.00
     AMIX_MAG =   1.60;   BMIX_MAG =  1.00
     AMIN     =   0.10
     WC   =   100.;   INIMIX=   1;  MIXPRE=   1

 Intra band minimization:
   WEIMIN = 0.0010     energy-eigenvalue tresh-hold
   EBREAK =  0.31E-10  absolut break condition
   DEPER  =   0.30     relativ break condition  

   TIME   =   0.10     timestep for ELM

  volume/ion in A,a.u.               =      27.06       182.63
  Fermi-wavevector in a.u.,eV,Ry     =   0.687002  6.421564  0.471972

 Second variation
   LSECVAR=     F    do a second variation
 
 Write flags
   LWAVE  =      T    write WAVECAR
   LCHARG =      T    write CHGCAR
   LVTOT  =      F    write LOCPOT, local potential
   LELF   =      F    write electronic localiz. function (ELF)
   LORBIT =      0    0 simple, 1 ext, 2 COOP (PROOUT)


 Dipole corrections
   IDIPOL =      0    1-x, 2-y, 3-z
   LDIPOL =      F    correct potential



--------------------------------------------------------------------------------------------------------


 finite differences
 charge density will be updated during run
 non-spin polarized calculation
 RMM-DIIS sequential band-by-band
 performe sub-space diagonalisation
    before iterative eigenvector-optimisation
 modified Broyden-mixing scheme, WC =      100.0
 initial mixing is a Kerker type mixing with AMIX =  0.4000 and BMIX =      1.0000
 Hartree-type preconditioning will be used
 using additional bands            4
 real space projection scheme for non local part
 calculate Harris-corrections to forces 
   (improved forces if not selfconsistent)
 use gradient corrections 
 use of overlap-Matrix (Vanderbilt PP)
 Gauss-broadening in eV      SIGMA  =   0.10


--------------------------------------------------------------------------------------------------------


  energy-cutoff  :     1000.00
  volume of cell :      108.25
      direct lattice vectors                 reciprocal lattice vectors
     5.000000000  0.000000000  0.000000000     0.200000000  0.115470054  0.000000000
    -2.500000000  4.330127019  0.000000000     0.000000000  0.230940108  0.000000000
     0.000000000  0.000000000  5.000000000     0.000000000  0.000000000  0.200000000

  length of vectors
     5.000000000  5.000000000  5.000000000     0.230940108  0.230940108  0.200000000


 
 k-points in units of 2pi/SCALE and weight: 4x4x4                                   
   0.02500000  0.04330127  0.02500000       0.031
   0.05000000  0.00000000  0.02500000       0.031
   0.07500000  0.07216878  0.02500000       0.062
   0.10000000 -0.02886751  0.02500000       0.062
  -0.07500000 -0.01443376  0.02500000       0.062
  -0.05000000  0.05773503  0.02500000       0.062
  -0.02500000  0.01443376  0.02500000       0.062
   0.07500000  0.12990381  0.02500000       0.031
  -0.05000000 -0.11547005  0.02500000       0.031
  -0.07500000  0.04330127  0.02500000       0.062
   0.02500000  0.04330127  0.07500000       0.031
   0.05000000  0.00000000  0.07500000       0.031
   0.07500000  0.07216878  0.07500000       0.062
   0.10000000 -0.02886751  0.07500000       0.062
  -0.07500000 -0.01443376  0.07500000       0.062
  -0.05000000  0.05773503  0.07500000       0.062
  -0.02500000  0.01443376  0.07500000       0.062
   0.07500000  0.12990381  0.07500000       0.031
  -0.05000000 -0.11547005  0.07500000       0.031
  -0.07500000  0.04330127  0.07500000       0.062
 
 k-points in reciprocal lattice and weights: 4x4x4                                   
   0.12500000  0.12500000  0.12500000       0.031
   0.25000000 -0.12500000  0.12500000       0.031
   0.37500000  0.12500000  0.12500000       0.062
   0.50000000 -0.37500000  0.12500000       0.062
  -0.37500000  0.12500000  0.12500000       0.062
  -0.25000000  0.37500000  0.12500000       0.062
  -0.12500000  0.12500000  0.12500000       0.062
   0.37500000  0.37500000  0.12500000       0.031
  -0.25000000 -0.37500000  0.12500000       0.031
  -0.37500000  0.37500000  0.12500000       0.062
   0.12500000  0.12500000  0.37500000       0.031
   0.25000000 -0.12500000  0.37500000       0.031
   0.37500000  0.12500000  0.37500000       0.062
   0.50000000 -0.37500000  0.37500000       0.062
  -0.37500000  0.12500000  0.37500000       0.062
  -0.25000000  0.37500000  0.37500000       0.062
  -0.12500000  0.12500000  0.37500000       0.062
   0.37500000  0.37500000  0.37500000       0.031
  -0.25000000 -0.37500000  0.37500000       0.031
  -0.37500000  0.37500000  0.37500000       0.062
 
 position of ions in fractional coordinates (direct lattice) 
   0.18789737  0.00000000  0.00483523
   0.00000000  0.18789736  0.00483523
   0.81210264  0.81210264  0.00483523
   0.00000000  0.00000000  0.08549431
 
 position of ions in cartesian coordinates  (Angst):
   0.93948683  0.00000000  0.02417614
  -0.46974341  0.81361946  0.02417614
   2.03025659  3.51650756  0.02417614
   0.00000000  0.00000000  0.42747157
 


--------------------------------------------------------------------------------------------------------


 k-point  1 :  0.12500.12500.1250  plane waves:   7758
 k-point  2 :  0.2500-.12500.1250  plane waves:   7758
 k-point  3 :  0.37500.12500.1250  plane waves:   7770
 k-point  4 :  0.5000-.37500.1250  plane waves:   7770
 k-point  5 :  -.37500.12500.1250  plane waves:   7766
 k-point  6 :  -.25000.37500.1250  plane waves:   7766
 k-point  7 :  -.12500.12500.1250  plane waves:   7761
 k-point  8 :  0.37500.37500.1250  plane waves:   7784
 k-point  9 :  -.2500-.37500.1250  plane waves:   7784
 k-point 10 :  -.37500.37500.1250  plane waves:   7773
 k-point 11 :  0.12500.12500.3750  plane waves:   7768
 k-point 12 :  0.2500-.12500.3750  plane waves:   7768
 k-point 13 :  0.37500.12500.3750  plane waves:   7782
 k-point 14 :  0.5000-.37500.3750  plane waves:   7782
 k-point 15 :  -.37500.12500.3750  plane waves:   7775
 k-point 16 :  -.25000.37500.3750  plane waves:   7775
 k-point 17 :  -.12500.12500.3750  plane waves:   7768
 k-point 18 :  0.37500.37500.3750  plane waves:   7795
 k-point 19 :  -.2500-.37500.3750  plane waves:   7795
 k-point 20 :  -.37500.37500.3750  plane waves:   7771

 maximum and minimum number of plane-waves per node :   7795  7758

 maximum number of plane-waves:   7795
 maximal index in each direction: 
   IXMAX= 13   IYMAX= 13   IZMAX= 12
   IXMIN=-13   IYMIN=-13   IZMIN=-13

 NGX is ok and might be reduce to  54
 NGY is ok and might be reduce to  54
 NGZ is ok and might be reduce to  52

 real space projection operators:
  total allocation   :    628.05 KBytes
  max/ min on nodes  :    628.05    628.05


 parallel 3dFFT wavefunction:
    minimum data exchange during FFTs selected (reduces bandwidth)
 parallel 3dFFT charge:
    minimum data exchange during FFTs selected (reduces bandwidth)

 For storing wavefunctions   19.90 MBYTES are necessary
 For predicting wavefunctions    3.84 MBYTES are necessary
Broyden mixing: mesh for mixing (old mesh)
   NGX = 25   NGY = 25   NGZ = 25
  (NGX  =108   NGY  =108   NGZ  =108)
 gives a total of  15625 points
 initial charge density was supplied:
 charge density of overlapping atoms calculated
 number of electron    8.0000000 magnetization 
 keeping initial charge density in first step


--------------------------------------------------------------------------------------------------------


 Maximum index for non-local projection operator         3609
 Maximum index for augmentation-charges         1516 (set IRDMAX)


--------------------------------------------------------------------------------------------------------


 First call to EWALD:  gamma=   0.372
 Maximum number of real-space cells 3x 3x 3
 Maximum number of reciprocal cells 3x 3x 3

    FEWALD:  VPU time    0.00: CPU time    0.00


----------------------------------------- Iteration    1(   1)  ---------------------------------------


    POTLOK:  VPU time    0.38: CPU time    0.38
    SETDIJ:  VPU time    0.00: CPU time    0.00
    EDDIAG:  VPU time    0.57: CPU time    0.57
  RMM-DIIS:  VPU time    1.38: CPU time    1.38
    ORTHCH:  VPU time    0.02: CPU time    0.02
    DOS   :  VPU time    0.00: CPU time    0.00
    ------------------------------------------
      LOOP:  VPU time    2.36: CPU time    2.36

 eigenvalue-minimisations  :   160
 total energy-change (2. order) : 0.6846829E+02  (-0.2228546E+03)
 number of electron    8.0000000 magnetization 
 augmentation part     8.0000000 magnetization 

 Free energy of the ion-electron system (eV)
  ---------------------------------------------------
  alpha Z        PSCENC =         1.60805079
  Ewald energy   TEWEN  =       -31.18009048
  -1/2 Hartree   DENC   =      -192.86586641
  -V(xc)+E(xc)   XCENC  =        26.73281888
  PAW double counting   =        52.48829125      -54.43122373
  entropy T*S    EENTRO =        -0.00000208
  eigenvalues    EBANDS =       -35.90517078
  atomic energy  EATOM  =       302.02148035
  ---------------------------------------------------
  free energy    TOTEN  =        68.46828778 eV

  energy without entropy =       68.46828985  energy(sigma->0) =       68.46828881


--------------------------------------------------------------------------------------------------------




----------------------------------------- Iteration    1(   2)  ---------------------------------------


    EDDIAG:  VPU time    0.58: CPU time    0.58
  RMM-DIIS:  VPU time    1.38: CPU time    1.38
    ORTHCH:  VPU time    0.02: CPU time    0.02
    DOS   :  VPU time    0.00: CPU time    0.00
    ------------------------------------------
      LOOP:  VPU time    1.98: CPU time    1.99

 eigenvalue-minimisations  :   160
 total energy-change (2. order) :-0.2792349E+02  (-0.4088856E+02)
 number of electron    8.0000000 magnetization 
 augmentation part     8.0000000 magnetization 

 Free energy of the ion-electron system (eV)
  ---------------------------------------------------
  alpha Z        PSCENC =         1.60805079
  Ewald energy   TEWEN  =       -31.18009048
  -1/2 Hartree   DENC   =      -192.86586641
  -V(xc)+E(xc)   XCENC  =        26.73281888
  PAW double counting   =        52.48829125      -54.43122373
  entropy T*S    EENTRO =        -0.00675295
  eigenvalues    EBANDS =       -63.82191346
  atomic energy  EATOM  =       302.02148035
  ---------------------------------------------------
  free energy    TOTEN  =        40.54479422 eV

  energy without entropy =       40.55154717  energy(sigma->0) =       40.54817069


--------------------------------------------------------------------------------------------------------




----------------------------------------- Iteration    1(   3)  ---------------------------------------


    EDDIAG:  VPU time    0.58: CPU time    0.57
  RMM-DIIS:  VPU time    1.38: CPU time    1.38
    ORTHCH:  VPU time    0.02: CPU time    0.02
    DOS   :  VPU time    0.00: CPU time    0.00
    ------------------------------------------
      LOOP:  VPU time    1.99: CPU time    1.99

 eigenvalue-minimisations  :   160
 total energy-change (2. order) :-0.3065708E+02  (-0.2601892E+02)
 number of electron    8.0000000 magnetization 
 augmentation part     8.0000000 magnetization 

 Free energy of the ion-electron system (eV)
  ---------------------------------------------------
  alpha Z        PSCENC =         1.60805079
  Ewald energy   TEWEN  =       -31.18009048
  -1/2 Hartree   DENC   =      -192.86586641
  -V(xc)+E(xc)   XCENC  =        26.73281888
  PAW double counting   =        52.48829125      -54.43122373
  entropy T*S    EENTRO =        -0.00352777
  eigenvalues    EBANDS =       -94.48222179
  atomic energy  EATOM  =       302.02148035
  ---------------------------------------------------
  free energy    TOTEN  =         9.88771107 eV

  energy without entropy =        9.89123884  energy(sigma->0) =        9.88947495


--------------------------------------------------------------------------------------------------------




----------------------------------------- Iteration    1(   4)  ---------------------------------------


    EDDIAG:  VPU time    0.58: CPU time    0.58
  RMM-DIIS:  VPU time    1.38: CPU time    1.38
    ORTHCH:  VPU time    0.02: CPU time    0.02
    DOS   :  VPU time    0.00: CPU time    0.00
    ------------------------------------------
      LOOP:  VPU time    1.98: CPU time    1.98

 eigenvalue-minimisations  :   160
 total energy-change (2. order) :-0.2216773E+02  (-0.1970255E+02)
 number of electron    8.0000000 magnetization 
 augmentation part     8.0000000 magnetization 

 Free energy of the ion-electron system (eV)
  ---------------------------------------------------
  alpha Z        PSCENC =         1.60805079
  Ewald energy   TEWEN  =       -31.18009048
  -1/2 Hartree   DENC   =      -192.86586641
  -V(xc)+E(xc)   XCENC  =        26.73281888
  PAW double counting   =        52.48829125      -54.43122373
  entropy T*S    EENTRO =         0.00000000
  eigenvalues    EBANDS =      -116.65347514
  atomic energy  EATOM  =       302.02148035
  ---------------------------------------------------
  free energy    TOTEN  =       -12.28001451 eV

  energy without entropy =      -12.28001451  energy(sigma->0) =      -12.28001451


--------------------------------------------------------------------------------------------------------




----------------------------------------- Iteration    1(   5)  ---------------------------------------


    EDDIAG:  VPU time    0.58: CPU time    0.58
  RMM-DIIS:  VPU time    1.37: CPU time    1.37
    ORTHCH:  VPU time    0.02: CPU time    0.02
    DOS   :  VPU time    0.00: CPU time    0.00
    ------------------------------------------
      LOOP:  VPU time    1.98: CPU time    1.97

 eigenvalue-minimisations  :   160
 total energy-change (2. order) :-0.6843885E+01  (-0.6413430E+01)
 number of electron    8.0000000 magnetization 
 augmentation part     8.0000000 magnetization 

 Free energy of the ion-electron system (eV)
  ---------------------------------------------------
  alpha Z        PSCENC =         1.60805079
  Ewald energy   TEWEN  =       -31.18009048
  -1/2 Hartree   DENC   =      -192.86586641
  -V(xc)+E(xc)   XCENC  =        26.73281888
  PAW double counting   =        52.48829125      -54.43122373
  entropy T*S    EENTRO =         0.00000000
  eigenvalues    EBANDS =      -123.49735974
  atomic energy  EATOM  =       302.02148035
  ---------------------------------------------------
  free energy    TOTEN  =       -19.12389911 eV

  energy without entropy =      -19.12389911  energy(sigma->0) =      -19.12389911


--------------------------------------------------------------------------------------------------------




----------------------------------------- Iteration    1(   6)  ---------------------------------------


    EDDIAG:  VPU time    0.58: CPU time    0.58
  RMM-DIIS:  VPU time    1.38: CPU time    1.39
    ORTHCH:  VPU time    0.02: CPU time    0.02
    DOS   :  VPU time    0.00: CPU time    0.00
    ------------------------------------------
      LOOP:  VPU time    1.99: CPU time    2.00

 eigenvalue-minimisations  :   160
 total energy-change (2. order) :-0.2343561E+01  (-0.2184054E+01)
 number of electron    8.0000000 magnetization 
 augmentation part     8.0000000 magnetization 

 Free energy of the ion-electron system (eV)
  ---------------------------------------------------
  alpha Z        PSCENC =         1.60805079
  Ewald energy   TEWEN  =       -31.18009048
  -1/2 Hartree   DENC   =      -192.86586641
  -V(xc)+E(xc)   XCENC  =        26.73281888
  PAW double counting   =        52.48829125      -54.43122373
  entropy T*S    EENTRO =         0.00000000
  eigenvalues    EBANDS =      -125.84092074
  atomic energy  EATOM  =       302.02148035
  ---------------------------------------------------
  free energy    TOTEN  =       -21.46746011 eV

  energy without entropy =      -21.46746011  energy(sigma->0) =      -21.46746011


--------------------------------------------------------------------------------------------------------




----------------------------------------- Iteration    1(   7)  ---------------------------------------


    EDDIAG:  VPU time    0.58: CPU time    0.58
  RMM-DIIS:  VPU time    1.39: CPU time    1.39
    ORTHCH:  VPU time    0.02: CPU time    0.02
    DOS   :  VPU time    0.00: CPU time    0.00
    ------------------------------------------
      LOOP:  VPU time    2.00: CPU time    2.00

 eigenvalue-minimisations  :   160
 total energy-change (2. order) :-0.7531829E+00  (-0.7098502E+00)
 number of electron    8.0000000 magnetization 
 augmentation part     8.0000000 magnetization 

 Free energy of the ion-electron system (eV)
  ---------------------------------------------------
  alpha Z        PSCENC =         1.60805079
  Ewald energy   TEWEN  =       -31.18009048
  -1/2 Hartree   DENC   =      -192.86586641
  -V(xc)+E(xc)   XCENC  =        26.73281888
  PAW double counting   =        52.48829125      -54.43122373
  entropy T*S    EENTRO =         0.00000000
  eigenvalues    EBANDS =      -126.59410366
  atomic energy  EATOM  =       302.02148035
  ---------------------------------------------------
  free energy    TOTEN  =       -22.22064303 eV

  energy without entropy =      -22.22064303  energy(sigma->0) =      -22.22064303


--------------------------------------------------------------------------------------------------------




----------------------------------------- Iteration    1(   8)  ---------------------------------------


    EDDIAG:  VPU time    0.58: CPU time    0.58
  RMM-DIIS:  VPU time    1.38: CPU time    1.39
    ORTHCH:  VPU time    0.02: CPU time    0.02
    DOS   :  VPU time    0.00: CPU time    0.00
    ------------------------------------------
      LOOP:  VPU time    1.99: CPU time    1.99

 eigenvalue-minimisations  :   160
 total energy-change (2. order) :-0.2447474E+00  (-0.2299443E+00)
 number of electron    8.0000000 magnetization 
 augmentation part     8.0000000 magnetization 

 Free energy of the ion-electron system (eV)
  ---------------------------------------------------
  alpha Z        PSCENC =         1.60805079
  Ewald energy   TEWEN  =       -31.18009048
  -1/2 Hartree   DENC   =      -192.86586641
  -V(xc)+E(xc)   XCENC  =        26.73281888
  PAW double counting   =        52.48829125      -54.43122373
  entropy T*S    EENTRO =         0.00000000
  eigenvalues    EBANDS =      -126.83885109
  atomic energy  EATOM  =       302.02148035
  ---------------------------------------------------
  free energy    TOTEN  =       -22.46539045 eV

  energy without entropy =      -22.46539045  energy(sigma->0) =      -22.46539045


--------------------------------------------------------------------------------------------------------




----------------------------------------- Iteration    1(   9)  ---------------------------------------


    EDDIAG:  VPU time    0.58: CPU time    0.58
  RMM-DIIS:  VPU time    2.34: CPU time    2.34
    ORTHCH:  VPU time    0.03: CPU time    0.02
    DOS   :  VPU time    0.00: CPU time    0.00
    ------------------------------------------
      LOOP:  VPU time    2.95: CPU time    2.95

 eigenvalue-minimisations  :   322
 total energy-change (2. order) :-0.1001577E+00  (-0.9580802E-01)
 number of electron    8.0000000 magnetization 
 augmentation part     8.0000000 magnetization 

 Free energy of the ion-electron system (eV)
  ---------------------------------------------------
  alpha Z        PSCENC =         1.60805079
  Ewald energy   TEWEN  =       -31.18009048
  -1/2 Hartree   DENC   =      -192.86586641
  -V(xc)+E(xc)   XCENC  =        26.73281888
  PAW double counting   =        52.48829125      -54.43122373
  entropy T*S    EENTRO =         0.00000000
  eigenvalues    EBANDS =      -126.93900876
  atomic energy  EATOM  =       302.02148035
  ---------------------------------------------------
  free energy    TOTEN  =       -22.56554813 eV

  energy without entropy =      -22.56554813  energy(sigma->0) =      -22.56554813


--------------------------------------------------------------------------------------------------------




----------------------------------------- Iteration    1(  10)  ---------------------------------------


    EDDIAG:  VPU time    0.58: CPU time    0.58
  RMM-DIIS:  VPU time    2.54: CPU time    2.54
    ORTHCH:  VPU time    0.02: CPU time    0.02
    DOS   :  VPU time    0.00: CPU time    0.00
    ------------------------------------------
      LOOP:  VPU time    3.14: CPU time    3.14

 eigenvalue-minimisations  :   342
 total energy-change (2. order) :-0.1276380E-01  (-0.1174820E-01)
 number of electron    8.0000000 magnetization 
 augmentation part     8.0000000 magnetization 

 Free energy of the ion-electron system (eV)
  ---------------------------------------------------
  alpha Z        PSCENC =         1.60805079
  Ewald energy   TEWEN  =       -31.18009048
  -1/2 Hartree   DENC   =      -192.86586641
  -V(xc)+E(xc)   XCENC  =        26.73281888
  PAW double counting   =        52.48829125      -54.43122373
  entropy T*S    EENTRO =         0.00000000
  eigenvalues    EBANDS =      -126.95177256
  atomic energy  EATOM  =       302.02148035
  ---------------------------------------------------
  free energy    TOTEN  =       -22.57831193 eV

  energy without entropy =      -22.57831193  energy(sigma->0) =      -22.57831193


--------------------------------------------------------------------------------------------------------




----------------------------------------- Iteration    1(  11)  ---------------------------------------


    EDDIAG:  VPU time    0.58: CPU time    0.58
  RMM-DIIS:  VPU time    2.45: CPU time    2.45
    ORTHCH:  VPU time    0.02: CPU time    0.02
    DOS   :  VPU time    0.00: CPU time    0.00
    ------------------------------------------
      LOOP:  VPU time    3.05: CPU time    3.06

 eigenvalue-minimisations  :   331
 total energy-change (2. order) :-0.4764869E-03  (-0.4076580E-03)
 number of electron    8.0000000 magnetization 
 augmentation part     8.0000000 magnetization 

 Free energy of the ion-electron system (eV)
  ---------------------------------------------------
  alpha Z        PSCENC =         1.60805079
  Ewald energy   TEWEN  =       -31.18009048
  -1/2 Hartree   DENC   =      -192.86586641
  -V(xc)+E(xc)   XCENC  =        26.73281888
  PAW double counting   =        52.48829125      -54.43122373
  entropy T*S    EENTRO =         0.00000000
  eigenvalues    EBANDS =      -126.95224905
  atomic energy  EATOM  =       302.02148035
  ---------------------------------------------------
  free energy    TOTEN  =       -22.57878842 eV

  energy without entropy =      -22.57878842  energy(sigma->0) =      -22.57878842


--------------------------------------------------------------------------------------------------------




----------------------------------------- Iteration    1(  12)  ---------------------------------------


    EDDIAG:  VPU time    0.58: CPU time    0.58
  RMM-DIIS:  VPU time    2.40: CPU time    2.40
    ORTHCH:  VPU time    0.02: CPU time    0.02
    DOS   :  VPU time    0.00: CPU time    0.00
    CHARGE:  VPU time    0.19: CPU time    0.19
    MIXING:  VPU time    0.01: CPU time    0.01
    ------------------------------------------
      LOOP:  VPU time    3.21: CPU time    3.21

 eigenvalue-minimisations  :   330
 total energy-change (2. order) :-0.5607997E-04  (-0.5339959E-04)
 number of electron    8.0000000 magnetization 
 augmentation part     0.0147502 magnetization 

 Broyden mixing:
  rms(total) = 0.87806E+00    rms(broyden)= 0.87794E+00
  rms(prec ) = 0.19424E+01
  weight for this iteration     100.00

 Free energy of the ion-electron system (eV)
  ---------------------------------------------------
  alpha Z        PSCENC =         1.60805079
  Ewald energy   TEWEN  =       -31.18009048
  -1/2 Hartree   DENC   =      -192.86586641
  -V(xc)+E(xc)   XCENC  =        26.73281888
  PAW double counting   =        52.48829125      -54.43122373
  entropy T*S    EENTRO =         0.00000000
  eigenvalues    EBANDS =      -126.95230513
  atomic energy  EATOM  =       302.02148035
  ---------------------------------------------------
  free energy    TOTEN  =       -22.57884450 eV

  energy without entropy =      -22.57884450  energy(sigma->0) =      -22.57884450


--------------------------------------------------------------------------------------------------------




----------------------------------------- Iteration    1(  13)  ---------------------------------------


    POTLOK:  VPU time    0.38: CPU time    0.38
    SETDIJ:  VPU time    0.00: CPU time    0.00
    EDDIAG:  VPU time    0.58: CPU time    0.58
  RMM-DIIS:  VPU time    2.34: CPU time    2.33
    ORTHCH:  VPU time    0.02: CPU time    0.02
    DOS   :  VPU time    0.00: CPU time    0.00
    CHARGE:  VPU time    0.20: CPU time    0.20
    MIXING:  VPU time    0.01: CPU time    0.01
    ------------------------------------------
      LOOP:  VPU time    3.54: CPU time    3.54

 eigenvalue-minimisations  :   320
 total energy-change (2. order) : 0.2749963E+01  (-0.6775130E+00)
 number of electron    8.0000000 magnetization 
 augmentation part    -0.0051340 magnetization 

 Broyden mixing:
  rms(total) = 0.33436E+00    rms(broyden)= 0.33431E+00
  rms(prec ) = 0.63918E+00
  weight for this iteration     100.00

 eigenvalues of (default mixing * dielectric matrix)
  average eigenvalue GAMMA=   1.0501
  1.0501

 Free energy of the ion-electron system (eV)
  ---------------------------------------------------
  alpha Z        PSCENC =         1.60805079
  Ewald energy   TEWEN  =       -31.18009048
  -1/2 Hartree   DENC   =      -216.14879018
  -V(xc)+E(xc)   XCENC  =        28.15473065
  PAW double counting   =        71.38759069      -73.60384666
  entropy T*S    EENTRO =         0.00000000
  eigenvalues    EBANDS =      -102.06800689
  atomic energy  EATOM  =       302.02148035
  ---------------------------------------------------
  free energy    TOTEN  =       -19.82888174 eV

  energy without entropy =      -19.82888174  energy(sigma->0) =      -19.82888174


--------------------------------------------------------------------------------------------------------




----------------------------------------- Iteration    1(  14)  ---------------------------------------


    POTLOK:  VPU time    0.38: CPU time    0.38
    SETDIJ:  VPU time    0.00: CPU time    0.00
    EDDIAG:  VPU time    0.58: CPU time    0.58
  RMM-DIIS:  VPU time    2.37: CPU time    2.37
    ORTHCH:  VPU time    0.02: CPU time    0.02
    DOS   :  VPU time    0.00: CPU time    0.00
    CHARGE:  VPU time    0.20: CPU time    0.20
    MIXING:  VPU time    0.01: CPU time    0.01
    ------------------------------------------
      LOOP:  VPU time    3.56: CPU time    3.57

 eigenvalue-minimisations  :   324
 total energy-change (2. order) : 0.1926980E+00  (-0.6711347E-01)
 number of electron    8.0000000 magnetization 
 augmentation part    -0.0083285 magnetization 

 Broyden mixing:
  rms(total) = 0.21245E+00    rms(broyden)= 0.21244E+00
  rms(prec ) = 0.35690E+00
  weight for this iteration     100.00

 eigenvalues of (default mixing * dielectric matrix)
  average eigenvalue GAMMA=   1.7413
  1.2910  2.1916

 Free energy of the ion-electron system (eV)
  ---------------------------------------------------
  alpha Z        PSCENC =         1.60805079
  Ewald energy   TEWEN  =       -31.18009048
  -1/2 Hartree   DENC   =      -223.45146291
  -V(xc)+E(xc)   XCENC  =        28.66393784
  PAW double counting   =        74.32248997      -76.53071440
  entropy T*S    EENTRO =         0.00000000
  eigenvalues    EBANDS =       -95.08987494
  atomic energy  EATOM  =       302.02148035
  ---------------------------------------------------
  free energy    TOTEN  =       -19.63618379 eV

  energy without entropy =      -19.63618379  energy(sigma->0) =      -19.63618379


--------------------------------------------------------------------------------------------------------




----------------------------------------- Iteration    1(  15)  ---------------------------------------


    POTLOK:  VPU time    0.38: CPU time    0.38
    SETDIJ:  VPU time    0.00: CPU time    0.00
    EDDIAG:  VPU time    0.58: CPU time    0.58
  RMM-DIIS:  VPU time    2.34: CPU time    2.34
    ORTHCH:  VPU time    0.02: CPU time    0.02
    DOS   :  VPU time    0.00: CPU time    0.00
    CHARGE:  VPU time    0.19: CPU time    0.19
    MIXING:  VPU time    0.01: CPU time    0.01
    ------------------------------------------
      LOOP:  VPU time    3.53: CPU time    3.53

 eigenvalue-minimisations  :   320
 total energy-change (2. order) : 0.8035167E-01  (-0.1727283E-01)
 number of electron    8.0000000 magnetization 
 augmentation part    -0.0068747 magnetization 

 Broyden mixing:
  rms(total) = 0.41035E-01    rms(broyden)= 0.41031E-01
  rms(prec ) = 0.10306E+00
  weight for this iteration     100.00

 eigenvalues of (default mixing * dielectric matrix)
  average eigenvalue GAMMA=   1.5684
  2.3985  1.1534  1.1534

 Free energy of the ion-electron system (eV)
  ---------------------------------------------------
  alpha Z        PSCENC =         1.60805079
  Ewald energy   TEWEN  =       -31.18009048
  -1/2 Hartree   DENC   =      -225.92860882
  -V(xc)+E(xc)   XCENC  =        28.94126477
  PAW double counting   =        71.89561633      -74.00886767
  entropy T*S    EENTRO =         0.00000000
  eigenvalues    EBANDS =       -92.90467737
  atomic energy  EATOM  =       302.02148035
  ---------------------------------------------------
  free energy    TOTEN  =       -19.55583211 eV

  energy without entropy =      -19.55583211  energy(sigma->0) =      -19.55583211


--------------------------------------------------------------------------------------------------------




----------------------------------------- Iteration    1(  16)  ---------------------------------------


    POTLOK:  VPU time    0.38: CPU time    0.38
    SETDIJ:  VPU time    0.00: CPU time    0.00
    EDDIAG:  VPU time    0.58: CPU time    0.58
  RMM-DIIS:  VPU time    2.33: CPU time    2.33
    ORTHCH:  VPU time    0.02: CPU time    0.02
    DOS   :  VPU time    0.00: CPU time    0.00
    CHARGE:  VPU time    0.20: CPU time    0.20
    MIXING:  VPU time    0.01: CPU time    0.01
    ------------------------------------------
      LOOP:  VPU time    3.52: CPU time    3.53

 eigenvalue-minimisations  :   320
 total energy-change (2. order) : 0.6209804E-02  (-0.3412842E-02)
 number of electron    8.0000000 magnetization 
 augmentation part    -0.0077252 magnetization 

 Broyden mixing:
  rms(total) = 0.19516E-01    rms(broyden)= 0.19514E-01
  rms(prec ) = 0.38298E-01
  weight for this iteration     100.00

 eigenvalues of (default mixing * dielectric matrix)
  average eigenvalue GAMMA=   1.9282
  2.8010  2.8010  1.0553  1.0553

 Free energy of the ion-electron system (eV)
  ---------------------------------------------------
  alpha Z        PSCENC =         1.60805079
  Ewald energy   TEWEN  =       -31.18009048
  -1/2 Hartree   DENC   =      -228.00336728
  -V(xc)+E(xc)   XCENC  =        29.07595377
  PAW double counting   =        73.14156477      -75.27477220
  entropy T*S    EENTRO =         0.00000000
  eigenvalues    EBANDS =       -90.93844201
  atomic energy  EATOM  =       302.02148035
  ---------------------------------------------------
  free energy    TOTEN  =       -19.54962231 eV

  energy without entropy =      -19.54962231  energy(sigma->0) =      -19.54962231


--------------------------------------------------------------------------------------------------------




----------------------------------------- Iteration    1(  17)  ---------------------------------------


    POTLOK:  VPU time    0.38: CPU time    0.38
    SETDIJ:  VPU time    0.00: CPU time    0.00
    EDDIAG:  VPU time    0.58: CPU time    0.58
  RMM-DIIS:  VPU time    2.44: CPU time    2.44
    ORTHCH:  VPU time    0.02: CPU time    0.02
    DOS   :  VPU time    0.00: CPU time    0.00
    CHARGE:  VPU time    0.20: CPU time    0.20
    MIXING:  VPU time    0.02: CPU time    0.01
    ------------------------------------------
      LOOP:  VPU time    3.64: CPU time    3.65

 eigenvalue-minimisations  :   331
 total energy-change (2. order) :-0.5083092E-02  (-0.1829082E-02)
 number of electron    8.0000000 magnetization 
 augmentation part    -0.0085013 magnetization 

 Broyden mixing:
  rms(total) = 0.33673E-01    rms(broyden)= 0.33671E-01
  rms(prec ) = 0.63130E-01
  weight for this iteration     100.00

 eigenvalues of (default mixing * dielectric matrix)
  average eigenvalue GAMMA=   1.7294
  3.0730  2.2815  1.0578  1.1173  1.1173

 Free energy of the ion-electron system (eV)
  ---------------------------------------------------
  alpha Z        PSCENC =         1.60805079
  Ewald energy   TEWEN  =       -31.18009048
  -1/2 Hartree   DENC   =      -228.27452389
  -V(xc)+E(xc)   XCENC  =        29.07844801
  PAW double counting   =        73.22651078      -75.37694932
  entropy T*S    EENTRO =         0.00000000
  eigenvalues    EBANDS =       -90.65763162
  atomic energy  EATOM  =       302.02148035
  ---------------------------------------------------
  free energy    TOTEN  =       -19.55470540 eV

  energy without entropy =      -19.55470540  energy(sigma->0) =      -19.55470540


--------------------------------------------------------------------------------------------------------




----------------------------------------- Iteration    1(  18)  ---------------------------------------


    POTLOK:  VPU time    0.38: CPU time    0.38
    SETDIJ:  VPU time    0.00: CPU time    0.00
    EDDIAG:  VPU time    0.58: CPU time    0.58
  RMM-DIIS:  VPU time    2.33: CPU time    2.33
    ORTHCH:  VPU time    0.02: CPU time    0.02
    DOS   :  VPU time    0.00: CPU time    0.00
    CHARGE:  VPU time    0.20: CPU time    0.20
    MIXING:  VPU time    0.01: CPU time    0.01
    ------------------------------------------
      LOOP:  VPU time    3.53: CPU time    3.54

 eigenvalue-minimisations  :   320
 total energy-change (2. order) : 0.3018914E-02  (-0.1117328E-02)
 number of electron    8.0000000 magnetization 
 augmentation part    -0.0079172 magnetization 

 Broyden mixing:
  rms(total) = 0.28641E-02    rms(broyden)= 0.28549E-02
  rms(prec ) = 0.52954E-02
  weight for this iteration     100.00

 eigenvalues of (default mixing * dielectric matrix)
  average eigenvalue GAMMA=   1.8562
  3.3496  2.5284  1.9570  0.9824  1.1599  1.1599

 Free energy of the ion-electron system (eV)
  ---------------------------------------------------
  alpha Z        PSCENC =         1.60805079
  Ewald energy   TEWEN  =       -31.18009048
  -1/2 Hartree   DENC   =      -227.67152799
  -V(xc)+E(xc)   XCENC  =        29.05238458
  PAW double counting   =        72.51265393      -74.64610367
  entropy T*S    EENTRO =         0.00000000
  eigenvalues    EBANDS =       -91.24853399
  atomic energy  EATOM  =       302.02148035
  ---------------------------------------------------
  free energy    TOTEN  =       -19.55168649 eV

  energy without entropy =      -19.55168649  energy(sigma->0) =      -19.55168649


--------------------------------------------------------------------------------------------------------




----------------------------------------- Iteration    1(  19)  ---------------------------------------


    POTLOK:  VPU time    0.38: CPU time    0.38
    SETDIJ:  VPU time    0.00: CPU time    0.00
    EDDIAG:  VPU time    0.58: CPU time    0.58
  RMM-DIIS:  VPU time    2.35: CPU time    2.35
    ORTHCH:  VPU time    0.02: CPU time    0.02
    DOS   :  VPU time    0.00: CPU time    0.00
    CHARGE:  VPU time    0.20: CPU time    0.20
    MIXING:  VPU time    0.01: CPU time    0.01
    ------------------------------------------
      LOOP:  VPU time    3.55: CPU time    3.56

 eigenvalue-minimisations  :   322
 total energy-change (2. order) :-0.4078639E-04  (-0.4077232E-04)
 number of electron    8.0000000 magnetization 
 augmentation part    -0.0078640 magnetization 

 Broyden mixing:
  rms(total) = 0.25220E-02    rms(broyden)= 0.25211E-02
  rms(prec ) = 0.47116E-02
  weight for this iteration     100.00

 eigenvalues of (default mixing * dielectric matrix)
  average eigenvalue GAMMA=   1.8460
  3.4299  2.6600  2.2656  0.9736  1.2869  1.1531  1.1531

 Free energy of the ion-electron system (eV)
  ---------------------------------------------------
  alpha Z        PSCENC =         1.60805079
  Ewald energy   TEWEN  =       -31.18009048
  -1/2 Hartree   DENC   =      -227.64166635
  -V(xc)+E(xc)   XCENC  =        29.04898635
  PAW double counting   =        72.56502133      -74.69920683
  entropy T*S    EENTRO =         0.00000000
  eigenvalues    EBANDS =       -91.27430243
  atomic energy  EATOM  =       302.02148035
  ---------------------------------------------------
  free energy    TOTEN  =       -19.55172727 eV

  energy without entropy =      -19.55172727  energy(sigma->0) =      -19.55172727


--------------------------------------------------------------------------------------------------------




----------------------------------------- Iteration    1(  20)  ---------------------------------------


    POTLOK:  VPU time    0.38: CPU time    0.38
    SETDIJ:  VPU time    0.00: CPU time    0.00
    EDDIAG:  VPU time    0.58: CPU time    0.58
  RMM-DIIS:  VPU time    2.34: CPU time    2.35
    ORTHCH:  VPU time    0.02: CPU time    0.02
    DOS   :  VPU time    0.00: CPU time    0.00
    CHARGE:  VPU time    0.20: CPU time    0.20
    MIXING:  VPU time    0.01: CPU time    0.01
    ------------------------------------------
      LOOP:  VPU time    3.54: CPU time    3.55

 eigenvalue-minimisations  :   321
 total energy-change (2. order) : 0.1361536E-04  (-0.1483532E-05)
 number of electron    8.0000000 magnetization 
 augmentation part    -0.0078575 magnetization 

 Broyden mixing:
  rms(total) = 0.14996E-02    rms(broyden)= 0.14996E-02
  rms(prec ) = 0.28976E-02
  weight for this iteration     100.00

 eigenvalues of (default mixing * dielectric matrix)
  average eigenvalue GAMMA=   1.8989
  3.6231  2.5905  2.5905  2.1168  1.1567  1.1567  1.0080  0.9487

 Free energy of the ion-electron system (eV)
  ---------------------------------------------------
  alpha Z        PSCENC =         1.60805079
  Ewald energy   TEWEN  =       -31.18009048
  -1/2 Hartree   DENC   =      -227.66024217
  -V(xc)+E(xc)   XCENC  =        29.04951820
  PAW double counting   =        72.60280939      -74.73753011
  entropy T*S    EENTRO =         0.00000000
  eigenvalues    EBANDS =       -91.25570961
  atomic energy  EATOM  =       302.02148035
  ---------------------------------------------------
  free energy    TOTEN  =       -19.55171366 eV

  energy without entropy =      -19.55171366  energy(sigma->0) =      -19.55171366


--------------------------------------------------------------------------------------------------------




----------------------------------------- Iteration    1(  21)  ---------------------------------------


    POTLOK:  VPU time    0.38: CPU time    0.37
    SETDIJ:  VPU time    0.00: CPU time    0.00
    EDDIAG:  VPU time    0.58: CPU time    0.58
  RMM-DIIS:  VPU time    2.35: CPU time    2.35
    ORTHCH:  VPU time    0.02: CPU time    0.02
    DOS   :  VPU time    0.00: CPU time    0.00
    CHARGE:  VPU time    0.20: CPU time    0.20
    MIXING:  VPU time    0.01: CPU time    0.01
    ------------------------------------------
      LOOP:  VPU time    3.55: CPU time    3.56

 eigenvalue-minimisations  :   320
 total energy-change (2. order) : 0.6142728E-05  (-0.3477129E-05)
 number of electron    8.0000000 magnetization 
 augmentation part    -0.0078863 magnetization 

 Broyden mixing:
  rms(total) = 0.21120E-03    rms(broyden)= 0.21079E-03
  rms(prec ) = 0.43356E-03
  weight for this iteration     100.00

 eigenvalues of (default mixing * dielectric matrix)
  average eigenvalue GAMMA=   1.7954
  3.7073  2.7940  2.4222  2.0161  1.1594  1.1594  1.1145  0.9841  0.8013

 Free energy of the ion-electron system (eV)
  ---------------------------------------------------
  alpha Z        PSCENC =         1.60805079
  Ewald energy   TEWEN  =       -31.18009048
  -1/2 Hartree   DENC   =      -227.68815053
  -V(xc)+E(xc)   XCENC  =        29.05081457
  PAW double counting   =        72.63224619      -74.76753186
  entropy T*S    EENTRO =         0.00000000
  eigenvalues    EBANDS =       -91.22852654
  atomic energy  EATOM  =       302.02148035
  ---------------------------------------------------
  free energy    TOTEN  =       -19.55170751 eV

  energy without entropy =      -19.55170751  energy(sigma->0) =      -19.55170751


--------------------------------------------------------------------------------------------------------




----------------------------------------- Iteration    1(  22)  ---------------------------------------


    POTLOK:  VPU time    0.38: CPU time    0.38
    SETDIJ:  VPU time    0.00: CPU time    0.00
    EDDIAG:  VPU time    0.58: CPU time    0.58
  RMM-DIIS:  VPU time    2.33: CPU time    2.33
    ORTHCH:  VPU time    0.02: CPU time    0.02
    DOS   :  VPU time    0.00: CPU time    0.00
    CHARGE:  VPU time    0.20: CPU time    0.19
    MIXING:  VPU time    0.01: CPU time    0.01
    ------------------------------------------
      LOOP:  VPU time    3.52: CPU time    3.53

 eigenvalue-minimisations  :   320
 total energy-change (2. order) : 0.1057856E-07  (-0.4945333E-07)
 number of electron    8.0000000 magnetization 
 augmentation part    -0.0078861 magnetization 

 Broyden mixing:
  rms(total) = 0.11860E-03    rms(broyden)= 0.11857E-03
  rms(prec ) = 0.24059E-03
  weight for this iteration     100.00

 eigenvalues of (default mixing * dielectric matrix)
  average eigenvalue GAMMA=   1.9358
  3.6253  3.6253  2.3680  2.3680  2.0717  1.1685  1.1685  1.0974  0.9705  0.8953

 Free energy of the ion-electron system (eV)
  ---------------------------------------------------
  alpha Z        PSCENC =         1.60805079
  Ewald energy   TEWEN  =       -31.18009048
  -1/2 Hartree   DENC   =      -227.68303283
  -V(xc)+E(xc)   XCENC  =        29.05053140
  PAW double counting   =        72.62859911      -74.76382451
  entropy T*S    EENTRO =         0.00000000
  eigenvalues    EBANDS =       -91.23342132
  atomic energy  EATOM  =       302.02148035
  ---------------------------------------------------
  free energy    TOTEN  =       -19.55170750 eV

  energy without entropy =      -19.55170750  energy(sigma->0) =      -19.55170750


--------------------------------------------------------------------------------------------------------




----------------------------------------- Iteration    1(  23)  ---------------------------------------


    POTLOK:  VPU time    0.38: CPU time    0.38
    SETDIJ:  VPU time    0.00: CPU time    0.00
    EDDIAG:  VPU time    0.58: CPU time    0.58
  RMM-DIIS:  VPU time    2.32: CPU time    2.33
    ORTHCH:  VPU time    0.02: CPU time    0.02
    DOS   :  VPU time    0.00: CPU time    0.00
    CHARGE:  VPU time    0.19: CPU time    0.20
    MIXING:  VPU time    0.02: CPU time    0.01
    ------------------------------------------
      LOOP:  VPU time    3.52: CPU time    3.52

 eigenvalue-minimisations  :   320
 total energy-change (2. order) :-0.9264147E-07  (-0.9322247E-07)
 number of electron    8.0000000 magnetization 
 augmentation part    -0.0078805 magnetization 

 Broyden mixing:
  rms(total) = 0.15748E-03    rms(broyden)= 0.15747E-03
  rms(prec ) = 0.32573E-03
  weight for this iteration     100.00

 eigenvalues of (default mixing * dielectric matrix)
  average eigenvalue GAMMA=   1.8310
  3.8445  3.1689  2.6840  2.3896  1.7287  1.2011  1.2011  0.9972  0.9631  0.9815
  0.9815

 Free energy of the ion-electron system (eV)
  ---------------------------------------------------
  alpha Z        PSCENC =         1.60805079
  Ewald energy   TEWEN  =       -31.18009048
  -1/2 Hartree   DENC   =      -227.67542760
  -V(xc)+E(xc)   XCENC  =        29.05011230
  PAW double counting   =        72.62234073      -74.75749431
  entropy T*S    EENTRO =         0.00000000
  eigenvalues    EBANDS =       -91.24067936
  atomic energy  EATOM  =       302.02148035
  ---------------------------------------------------
  free energy    TOTEN  =       -19.55170760 eV

  energy without entropy =      -19.55170760  energy(sigma->0) =      -19.55170760


--------------------------------------------------------------------------------------------------------




----------------------------------------- Iteration    1(  24)  ---------------------------------------


    POTLOK:  VPU time    0.38: CPU time    0.38
    SETDIJ:  VPU time    0.00: CPU time    0.00
    EDDIAG:  VPU time    0.58: CPU time    0.58
  RMM-DIIS:  VPU time    2.34: CPU time    2.34
    ORTHCH:  VPU time    0.02: CPU time    0.02
    DOS   :  VPU time    0.00: CPU time    0.00
    CHARGE:  VPU time    0.20: CPU time    0.20
    MIXING:  VPU time    0.01: CPU time    0.01
    ------------------------------------------
      LOOP:  VPU time    3.54: CPU time    3.54

 eigenvalue-minimisations  :   320
 total energy-change (2. order) : 0.1552949E-06  (-0.2152758E-07)
 number of electron    8.0000000 magnetization 
 augmentation part    -0.0078831 magnetization 

 Broyden mixing:
  rms(total) = 0.19933E-04    rms(broyden)= 0.19915E-04
  rms(prec ) = 0.36327E-04
  weight for this iteration     100.00

 eigenvalues of (default mixing * dielectric matrix)
  average eigenvalue GAMMA=   1.8483
  3.8968  3.3728  2.5937  2.5937  1.7099  1.7099  1.1720  1.1720  1.0469  1.0469
  0.9680  0.8972

 Free energy of the ion-electron system (eV)
  ---------------------------------------------------
  alpha Z        PSCENC =         1.60805079
  Ewald energy   TEWEN  =       -31.18009048
  -1/2 Hartree   DENC   =      -227.67988145
  -V(xc)+E(xc)   XCENC  =        29.05037732
  PAW double counting   =        72.62564546      -74.76086246
  entropy T*S    EENTRO =         0.00000000
  eigenvalues    EBANDS =       -91.23642697
  atomic energy  EATOM  =       302.02148035
  ---------------------------------------------------
  free energy    TOTEN  =       -19.55170744 eV

  energy without entropy =      -19.55170744  energy(sigma->0) =      -19.55170744


--------------------------------------------------------------------------------------------------------




----------------------------------------- Iteration    1(  25)  ---------------------------------------


    POTLOK:  VPU time    0.38: CPU time    0.38
    SETDIJ:  VPU time    0.00: CPU time    0.00
    EDDIAG:  VPU time    0.58: CPU time    0.58
  RMM-DIIS:  VPU time    2.34: CPU time    2.35
    ORTHCH:  VPU time    0.02: CPU time    0.02
    DOS   :  VPU time    0.00: CPU time    0.00
    CHARGE:  VPU time    0.20: CPU time    0.20
    MIXING:  VPU time    0.02: CPU time    0.01
    ------------------------------------------
      LOOP:  VPU time    3.55: CPU time    3.55

 eigenvalue-minimisations  :   323
 total energy-change (2. order) : 0.1916931E-07  (-0.1349220E-07)
 number of electron    8.0000000 magnetization 
 augmentation part    -0.0078851 magnetization 

 Broyden mixing:
  rms(total) = 0.69124E-04    rms(broyden)= 0.69116E-04
  rms(prec ) = 0.13528E-03
  weight for this iteration     100.00

 eigenvalues of (default mixing * dielectric matrix)
  average eigenvalue GAMMA=   1.8720
  3.9255  3.5442  2.7729  2.7729  2.4155  1.6056  1.2154  1.2154  0.9975  0.9975
  1.0126  0.9751  0.8866

 Free energy of the ion-electron system (eV)
  ---------------------------------------------------
  alpha Z        PSCENC =         1.60805079
  Ewald energy   TEWEN  =       -31.18009048
  -1/2 Hartree   DENC   =      -227.68131423
  -V(xc)+E(xc)   XCENC  =        29.05045111
  PAW double counting   =        72.62722895      -74.76247547
  entropy T*S    EENTRO =         0.00000000
  eigenvalues    EBANDS =       -91.23503843
  atomic energy  EATOM  =       302.02148035
  ---------------------------------------------------
  free energy    TOTEN  =       -19.55170742 eV

  energy without entropy =      -19.55170742  energy(sigma->0) =      -19.55170742


--------------------------------------------------------------------------------------------------------




----------------------------------------- Iteration    1(  26)  ---------------------------------------


    POTLOK:  VPU time    0.38: CPU time    0.38
    SETDIJ:  VPU time    0.00: CPU time    0.00
    EDDIAG:  VPU time    0.58: CPU time    0.58
  RMM-DIIS:  VPU time    2.32: CPU time    2.32
    ORTHCH:  VPU time    0.02: CPU time    0.02
    DOS   :  VPU time    0.00: CPU time    0.00
    CHARGE:  VPU time    0.21: CPU time    0.21
    MIXING:  VPU time    0.01: CPU time    0.01
    ------------------------------------------
      LOOP:  VPU time    3.53: CPU time    3.54

 eigenvalue-minimisations  :   320
 total energy-change (2. order) :-0.2146481E-07  (-0.3991955E-08)
 number of electron    8.0000000 magnetization 
 augmentation part    -0.0078841 magnetization 

 Broyden mixing:
  rms(total) = 0.53273E-05    rms(broyden)= 0.53165E-05
  rms(prec ) = 0.97291E-05
  weight for this iteration     100.00

 eigenvalues of (default mixing * dielectric matrix)
  average eigenvalue GAMMA=   1.8241
  3.9163  3.5986  2.7701  2.7701  2.3674  1.6786  1.1882  1.1882  1.0681  1.0681
  0.9655  0.9655  0.9964  0.9964

 Free energy of the ion-electron system (eV)
  ---------------------------------------------------
  alpha Z        PSCENC =         1.60805079
  Ewald energy   TEWEN  =       -31.18009048
  -1/2 Hartree   DENC   =      -227.67969668
  -V(xc)+E(xc)   XCENC  =        29.05036671
  PAW double counting   =        72.62578253      -74.76099904
  entropy T*S    EENTRO =         0.00000000
  eigenvalues    EBANDS =       -91.23660162
  atomic energy  EATOM  =       302.02148035
  ---------------------------------------------------
  free energy    TOTEN  =       -19.55170744 eV

  energy without entropy =      -19.55170744  energy(sigma->0) =      -19.55170744


--------------------------------------------------------------------------------------------------------




----------------------------------------- Iteration    1(  27)  ---------------------------------------


    POTLOK:  VPU time    0.38: CPU time    0.38
    SETDIJ:  VPU time    0.00: CPU time    0.00
    EDDIAG:  VPU time    0.58: CPU time    0.58
  RMM-DIIS:  VPU time    2.25: CPU time    2.25
    ORTHCH:  VPU time    0.02: CPU time    0.02
    DOS   :  VPU time    0.00: CPU time    0.00
    CHARGE:  VPU time    0.20: CPU time    0.20
    MIXING:  VPU time    0.02: CPU time    0.02
    ------------------------------------------
      LOOP:  VPU time    3.46: CPU time    3.50

 eigenvalue-minimisations  :   300
 total energy-change (2. order) :-0.1925514E-08  (-0.4723727E-09)
 number of electron    8.0000000 magnetization 
 augmentation part    -0.0078838 magnetization 

 Broyden mixing:
  rms(total) = 0.56418E-05    rms(broyden)= 0.56387E-05
  rms(prec ) = 0.11426E-04
  weight for this iteration     100.00

 eigenvalues of (default mixing * dielectric matrix)
  average eigenvalue GAMMA=   1.7723
  3.9415  3.5543  2.7612  2.7612  2.3641  1.5610  1.1606  1.1606  1.1933  1.1933
  1.0533  1.0533  0.9753  0.9753  0.8764

 Free energy of the ion-electron system (eV)
  ---------------------------------------------------
  alpha Z        PSCENC =         1.60805079
  Ewald energy   TEWEN  =       -31.18009048
  -1/2 Hartree   DENC   =      -227.67958235
  -V(xc)+E(xc)   XCENC  =        29.05036121
  PAW double counting   =        72.62566585      -74.76088001
  entropy T*S    EENTRO =         0.00000000
  eigenvalues    EBANDS =       -91.23671280
  atomic energy  EATOM  =       302.02148035
  ---------------------------------------------------
  free energy    TOTEN  =       -19.55170745 eV

  energy without entropy =      -19.55170745  energy(sigma->0) =      -19.55170745


--------------------------------------------------------------------------------------------------------




----------------------------------------- Iteration    1(  28)  ---------------------------------------


    POTLOK:  VPU time    0.38: CPU time    0.38
    SETDIJ:  VPU time    0.00: CPU time    0.00
    EDDIAG:  VPU time    0.58: CPU time    0.58
  RMM-DIIS:  VPU time    1.81: CPU time    1.81
    ORTHCH:  VPU time    0.02: CPU time    0.02
    DOS   :  VPU time    0.00: CPU time    0.00
    CHARGE:  VPU time    0.20: CPU time    0.20
    MIXING:  VPU time    0.01: CPU time    0.02
    ------------------------------------------
      LOOP:  VPU time    3.02: CPU time    3.02

 eigenvalue-minimisations  :   227
 total energy-change (2. order) : 0.2989907E-08  (-0.1651579E-10)
 number of electron    8.0000000 magnetization 
 augmentation part    -0.0078838 magnetization 

 Broyden mixing:
  rms(total) = 0.34405E-05    rms(broyden)= 0.34404E-05
  rms(prec ) = 0.69955E-05
  weight for this iteration     100.00

 eigenvalues of (default mixing * dielectric matrix)
  average eigenvalue GAMMA=   1.7881
  3.9597  3.5261  3.0343  2.4792  2.1852  2.1852  1.7531  1.2015  1.2015  1.0819
  1.0819  1.1691  0.9998  0.9127  0.9188  0.9188

 Free energy of the ion-electron system (eV)
  ---------------------------------------------------
  alpha Z        PSCENC =         1.60805079
  Ewald energy   TEWEN  =       -31.18009048
  -1/2 Hartree   DENC   =      -227.67967990
  -V(xc)+E(xc)   XCENC  =        29.05036643
  PAW double counting   =        72.62575379      -74.76096977
  entropy T*S    EENTRO =         0.00000000
  eigenvalues    EBANDS =       -91.23661864
  atomic energy  EATOM  =       302.02148035
  ---------------------------------------------------
  free energy    TOTEN  =       -19.55170744 eV

  energy without entropy =      -19.55170744  energy(sigma->0) =      -19.55170744


--------------------------------------------------------------------------------------------------------




----------------------------------------- Iteration    1(  29)  ---------------------------------------


    POTLOK:  VPU time    0.38: CPU time    0.38
    SETDIJ:  VPU time    0.00: CPU time    0.00
    EDDIAG:  VPU time    0.58: CPU time    0.58
  RMM-DIIS:  VPU time    1.72: CPU time    1.71
    ORTHCH:  VPU time    0.02: CPU time    0.02
    DOS   :  VPU time    0.00: CPU time    0.00
    ------------------------------------------
      LOOP:  VPU time    2.70: CPU time    2.70

 eigenvalue-minimisations  :   198
 total energy-change (2. order) : 0.9656560E-09  (-0.2112921E-11)
 number of electron    8.0000000 magnetization 
 augmentation part    -0.0078838 magnetization 

 Free energy of the ion-electron system (eV)
  ---------------------------------------------------
  alpha Z        PSCENC =         1.60805079
  Ewald energy   TEWEN  =       -31.18009048
  -1/2 Hartree   DENC   =      -227.67971873
  -V(xc)+E(xc)   XCENC  =        29.05036842
  PAW double counting   =        72.62578667      -74.76100344
  entropy T*S    EENTRO =         0.00000000
  eigenvalues    EBANDS =       -91.23658101
  atomic energy  EATOM  =       302.02148035
  ---------------------------------------------------
  free energy    TOTEN  =       -19.55170744 eV

  energy without entropy =      -19.55170744  energy(sigma->0) =      -19.55170744


--------------------------------------------------------------------------------------------------------




 average (electrostatic) potential at core
  the test charge radii are     0.4325  0.5902
  (the norm of the test charge is              1.0000)
       1 -45.0894       2 -45.0894       3 -45.0894       4-101.9180
 
 
 
 E-fermi :  -4.6628     XC(G=0):  -3.7678     alpha+bet : -1.6044
   add alpha+bet to get absolut eigen values

 k-point   1 :       0.1250    0.1250    0.1250
  band No.  band energies     occupation 
      1     -20.1206      2.00000
      2     -10.1475      2.00000
      3     -10.1132      2.00000
      4      -5.1550      2.00000
      5      -0.6192      0.00000
      6       3.2289      0.00000
      7       3.6872      0.00000
      8       4.3121      0.00000

 k-point   2 :       0.2500   -0.1250    0.1250
  band No.  band energies     occupation 
      1     -20.1206      2.00000
      2     -10.1475      2.00000
      3     -10.1132      2.00000
      4      -5.1551      2.00000
      5      -0.6170      0.00000
      6       3.3006      0.00000
      7       3.6777      0.00000
      8       5.3627      0.00000

 k-point   3 :       0.3750    0.1250    0.1250
  band No.  band energies     occupation 
      1     -20.1128      2.00000
      2     -10.2146      2.00000
      3     -10.1396      2.00000
      4      -5.1266      2.00000
      5       0.7099      0.00000
      6       1.6170      0.00000
      7       3.3939      0.00000
      8       4.6733      0.00000

 k-point   4 :       0.5000   -0.3750    0.1250
  band No.  band energies     occupation 
      1     -20.1128      2.00000
      2     -10.2146      2.00000
      3     -10.1396      2.00000
      4      -5.1270      2.00000
      5       0.7239      0.00000
      6       1.6452      0.00000
      7       3.4491      0.00000
      8       4.9104      0.00000

 k-point   5 :      -0.3750    0.1250    0.1250
  band No.  band energies     occupation 
      1     -20.1160      2.00000
      2     -10.1872      2.00000
      3     -10.1285      2.00000
      4      -5.1384      2.00000
      5      -0.0550      0.00000
      6       2.4814      0.00000
      7       3.7389      0.00000
      8       4.1731      0.00000

 k-point   6 :      -0.2500    0.3750    0.1250
  band No.  band energies     occupation 
      1     -20.1160      2.00000
      2     -10.1872      2.00000
      3     -10.1286      2.00000
      4      -5.1387      2.00000
      5      -0.0482      0.00000
      6       2.5331      0.00000
      7       3.7456      0.00000
      8       4.0105      0.00000

 k-point   7 :      -0.1250    0.1250    0.1250
  band No.  band energies     occupation 
      1     -20.1238      2.00000
      2     -10.1178      2.00000
      3     -10.1034      2.00000
      4      -5.1667      2.00000
      5      -0.9180      0.00000
      6       3.4793      0.00000
      7       3.8233      0.00000
      8       4.3352      0.00000

 k-point   8 :       0.3750    0.3750    0.1250
  band No.  band energies     occupation 
      1     -20.1115      2.00000
      2     -10.2020      2.00000
      3     -10.1685      2.00000
      4      -5.1216      2.00000
      5       1.4016      0.00000
      6       1.4147      0.00000
      7       2.4430      0.00000
      8       5.3706      0.00000

 k-point   9 :      -0.2500   -0.3750    0.1250
  band No.  band energies     occupation 
      1     -20.1115      2.00000
      2     -10.2020      2.00000
      3     -10.1686      2.00000
      4      -5.1223      2.00000
      5       1.4470      0.00000
      6       1.4497      0.00000
      7       2.4805      0.00000
      8       4.8291      0.00000

 k-point  10 :      -0.3750    0.3750    0.1250
  band No.  band energies     occupation 
      1     -20.1147      2.00000
      2     -10.2064      2.00000
      3     -10.1251      2.00000
      4      -5.1336      2.00000
      5       0.2081      0.00000
      6       2.0233      0.00000
      7       4.0300      0.00000
      8       4.5877      0.00000

 k-point  11 :       0.1250    0.1250    0.3750
  band No.  band energies     occupation 
      1     -20.1186      2.00000
      2     -10.1431      2.00000
      3     -10.1097      2.00000
      4      -5.2717      2.00000
      5       0.0140      0.00000
      6       2.0828      0.00000
      7       3.5297      0.00000
      8       4.5102      0.00000

 k-point  12 :       0.2500   -0.1250    0.3750
  band No.  band energies     occupation 
      1     -20.1186      2.00000
      2     -10.1431      2.00000
      3     -10.1097      2.00000
      4      -5.2718      2.00000
      5       0.0189      0.00000
      6       2.0681      0.00000
      7       3.6478      0.00000
      8       4.3568      0.00000

 k-point  13 :       0.3750    0.1250    0.3750
  band No.  band energies     occupation 
      1     -20.1109      2.00000
      2     -10.2087      2.00000
      3     -10.1356      2.00000
      4      -5.2276      2.00000
      5       1.2737      0.00000
      6       2.0540      0.00000
      7       3.0708      0.00000
      8       3.7871      0.00000

 k-point  14 :       0.5000   -0.3750    0.3750
  band No.  band energies     occupation 
      1     -20.1109      2.00000
      2     -10.2088      2.00000
      3     -10.1356      2.00000
      4      -5.2280      2.00000
      5       1.3080      0.00000
      6       2.1115      0.00000
      7       3.0038      0.00000
      8       3.9669      0.00000

 k-point  15 :      -0.3750    0.1250    0.3750
  band No.  band energies     occupation 
      1     -20.1141      2.00000
      2     -10.1819      2.00000
      3     -10.1247      2.00000
      4      -5.2459      2.00000
      5       0.5582      0.00000
      6       2.4253      0.00000
      7       2.9038      0.00000
      8       4.1230      0.00000

 k-point  16 :      -0.2500    0.3750    0.3750
  band No.  band energies     occupation 
      1     -20.1141      2.00000
      2     -10.1819      2.00000
      3     -10.1248      2.00000
      4      -5.2462      2.00000
      5       0.5742      0.00000
      6       2.3872      0.00000
      7       3.0053      0.00000
      8       4.0801      0.00000

 k-point  17 :      -0.1250    0.1250    0.3750
  band No.  band energies     occupation 
      1     -20.1218      2.00000
      2     -10.1141      2.00000
      3     -10.1001      2.00000
      4      -5.2898      2.00000
      5      -0.2799      0.00000
[...]
    4    1  0.0030  0.0000  0.0000
  0.098246   0.000000  -0.049517
  0.036058  -0.036222   0.024771
  0.036058   0.036222   0.024771
 -0.170361   0.000000  -0.000025
    4    2  0.0000  0.0030  0.0000
  0.000052   0.014952   0.000061
 -0.036064   0.078016  -0.042742
  0.036222   0.078326   0.042708
 -0.000211  -0.171293  -0.000027
    4    3  0.0000  0.0000  0.0030
 -0.033495   0.000000   0.021494
  0.016748  -0.029008   0.021494
  0.016748   0.029008   0.021494
  0.000000   0.000000  -0.064482
  
 
 SECOND DERIVATIVES (NOT SYMMETRIZED)
 ------------------------------------
               1X          1Y          1Z          2X          2Y          2Z          3X          3Y          3Z          4X          4Y          4Z 
  1X   -36.339194    0.000000   13.243679    1.706699    0.261537   -1.039547    1.706699   -0.261537   -1.039547   32.925797    0.000000  -11.164584
  1Y    -0.025463   -5.262160    0.010602   -3.103717    0.081680    1.262681    3.094880    0.069321   -1.275818    0.034300    5.111159    0.002534
  1Z    13.239867    0.000000   -6.928815    1.628708   -0.258207   -0.062294    1.628708    0.258207   -0.062294  -16.497283    0.000000    7.053404
  2X     1.717775   -3.106756    1.625239  -13.099473   13.463630   -6.598310   -0.762887    1.665414   -0.620995   12.144584  -12.022288    5.594066
  2Y     0.265329    0.089762   -0.271641   13.464715  -28.750260   11.471840   -1.667807    2.508824   -1.522379  -12.062236   26.151674   -9.677819
  2Z    -1.034506    1.282269   -0.062662   -6.607920   11.445253   -6.989849   -0.593225    1.537043   -0.062662    8.235651  -14.264566    7.115172
  3X     1.698217    3.094301    1.622697   -0.763397   -1.664312   -0.621241  -13.194977  -13.505588   -6.591723   12.260157   12.075599    5.590267
  3Y    -0.260084    0.073362    0.242673    1.669200    2.507627    1.518578  -13.504360  -28.835219  -11.439164   12.095244   26.254230    9.677912
  3Z    -1.022305   -1.291337   -0.061175   -0.607178   -1.531010   -0.061175   -6.594850  -11.422614   -7.015335    8.224333   14.244962    7.137686
  4X    32.748602    0.000000  -16.505798   12.019200  -12.074165    8.257017   12.019200   12.074165    8.257017  -56.787002    0.000000   -0.008237
  4Y     0.017446    4.983906    0.020278  -12.021310   26.005358  -14.247465   12.074062   26.108541   14.236103   -0.070199  -57.097805   -0.008916
  4Z   -11.165103    0.000000    7.164615    5.582551   -9.669263    7.164615    5.582551    9.669263    7.164615    0.000000    0.000000  -21.493845
 
 
 SECOND DERIVATIVES (SYMMETRYZED)
 --------------------------------
               1X          1Y          1Z          2X          2Y          2Z          3X          3Y          3Z          4X          4Y          4Z 
  1X   -36.339194   -0.012731   13.241773    1.712237    0.263433   -1.037027    1.702458   -0.260810   -1.030926   32.837199    0.008723  -11.164843
  1Y    -0.012731   -5.262160    0.005301   -3.105236    0.085721    1.272475    3.094591    0.071341   -1.283578    0.017150    5.047533    0.001267
  1Z    13.241773    0.005301   -6.928815    1.626974   -0.264924   -0.062478    1.625703    0.250440   -0.061735  -16.501541    0.010139    7.109009
  2X     1.712237   -3.105236    1.626974  -13.099473   13.464172   -6.603115   -0.763142    1.667307   -0.614087   12.081892  -12.021799    5.588309
  2Y     0.263433    0.085721   -0.264924   13.464172  -28.750260   11.458546   -1.666060    2.508225   -1.526695  -12.068201   26.078516   -9.673541
  2Z    -1.037027    1.272475   -0.062478   -6.603115   11.458546   -6.989849   -0.607233    1.527811   -0.061919    8.246334  -14.256015    7.139894
  3X     1.702458    3.094591    1.625703   -0.763142   -1.666060   -0.607233  -13.194977  -13.504974   -6.593286   12.139679   12.074831    5.586409
  3Y    -0.260810    0.071341    0.250440    1.667307    2.508225    1.527811  -13.504974  -28.835219  -11.430889   12.084704   26.181386    9.673588
  3Z    -1.030926   -1.283578   -0.061735   -0.614087   -1.526695   -0.061919   -6.593286  -11.430889   -7.015335    8.240675   14.240532    7.151150
  4X    32.837199    0.017150  -16.501541   12.081892  -12.068201    8.246334   12.139679   12.084704    8.240675  -56.787002   -0.035099   -0.004118
  4Y     0.008723    5.047533    0.010139  -12.021799   26.078516  -14.256015   12.074831   26.181386   14.240532   -0.035099  -57.097805   -0.004458
  4Z   -11.164843    0.001267    7.109009    5.588309   -9.673541    7.139894    5.586409    9.673588    7.151150   -0.004118   -0.004458  -21.493845
 
 
 MASS-WEIGHTED SECOND DERIVATIVES
 --------------------------------
               1X          1Y          1Z          2X          2Y          2Z          3X          3Y          3Z          4X          4Y          4Z 
  1X   -36.339194   -0.012731   13.241773    1.712237    0.263433   -1.037027    1.702458   -0.260810   -1.030926    8.775797    0.002331   -2.983823
  1Y    -0.012731   -5.262160    0.005301   -3.105236    0.085721    1.272475    3.094591    0.071341   -1.283578    0.004583    1.348962    0.000339
  1Z    13.241773    0.005301   -6.928815    1.626974   -0.264924   -0.062478    1.625703    0.250440   -0.061735   -4.410065    0.002710    1.899895
  2X     1.712237   -3.105236    1.626974  -13.099473   13.464172   -6.603115   -0.763142    1.667307   -0.614087    3.228906   -3.212846    1.493485
  2Y     0.263433    0.085721   -0.264924   13.464172  -28.750260   11.458546   -1.666060    2.508225   -1.526695   -3.225247    6.969528   -2.585270
  2Z    -1.037027    1.272475   -0.062478   -6.603115   11.458546   -6.989849   -0.607233    1.527811   -0.061919    2.203847   -3.809944    1.908149
  3X     1.702458    3.094591    1.625703   -0.763142   -1.666060   -0.607233  -13.194977  -13.504974   -6.593286    3.244350    3.227019    1.492977
  3Y    -0.260810    0.071341    0.250440    1.667307    2.508225    1.527811  -13.504974  -28.835219  -11.430889    3.229658    6.997020    2.585283
  3Z    -1.030926   -1.283578   -0.061735   -0.614087   -1.526695   -0.061919   -6.593286  -11.430889   -7.015335    2.202334    3.805806    1.911157
  4X     8.775797    0.004583   -4.410065    3.228906   -3.225247    2.203847    3.244350    3.229658    2.202334   -4.055925   -0.002507   -0.000294
  4Y     0.002331    1.348962    0.002710   -3.212846    6.969528   -3.809944    3.227019    6.997020    3.805806   -0.002507   -4.078123   -0.000318
  4Z    -2.983823    0.000339    1.899895    1.493485   -2.585270    1.908149    1.492977    2.585283    1.911157   -0.000294   -0.000318   -1.535165
 
 
 Eigenvectors and eigenvalues of the dynamical matrix
 ----------------------------------------------------
 
 
   1 f  =  105.246572 THz   661.283713 2PiTHz 3510.647640 cm-1   435.264990 meV
             X         Y         Z           dx          dy          dz
      0.939487  0.000000  0.024176     0.146020   -0.025587   -0.061341  
     -0.469743  0.813619  0.024176    -0.275696    0.444532   -0.217135  
      2.030257  3.516508  0.024176     0.356943    0.604042    0.288316  
      0.000000  0.000000  0.427472    -0.060435   -0.272829   -0.002697  
 
   2 f  =  105.098232 THz   660.351669 2PiTHz 3505.699571 cm-1   434.651507 meV
             X         Y         Z           dx          dy          dz
      0.939487  0.000000  0.024176     0.690621    0.006179   -0.288211  
     -0.469743  0.813619  0.024176     0.235269   -0.447046    0.207864  
      2.030257  3.516508  0.024176     0.095035    0.213777    0.094914  
      0.000000  0.000000  0.427472    -0.272225    0.060559   -0.003928  
 
   3 f  =  101.604479 THz   638.399768 2PiTHz 3389.160499 cm-1   420.202499 meV
             X         Y         Z           dx          dy          dz
      0.939487  0.000000  0.024176     0.564923   -0.000422   -0.190189  
     -0.469743  0.813619  0.024176    -0.269810    0.466009   -0.178595  
      2.030257  3.516508  0.024176    -0.261489   -0.451893   -0.171109  
      0.000000  0.000000  0.427472    -0.009007   -0.003627    0.144483  
 
   4 f  =   48.799542 THz   306.616563 2PiTHz 1627.777446 cm-1   201.818754 meV
             X         Y         Z           dx          dy          dz
      0.939487  0.000000  0.024176     0.135917    0.124768    0.245060  
     -0.469743  0.813619  0.024176    -0.445356   -0.359979   -0.162196  
      2.030257  3.516508  0.024176    -0.578872    0.389859   -0.088324  
      0.000000  0.000000  0.427472     0.234742   -0.041003    0.001110  
 
   5 f  =   48.637165 THz   305.596322 2PiTHz 1622.361153 cm-1   201.147219 meV
             X         Y         Z           dx          dy          dz
      0.939487  0.000000  0.024176    -0.023807    0.723984   -0.042508  
     -0.469743  0.813619  0.024176     0.465774    0.145219   -0.193703  
      2.030257  3.516508  0.024176    -0.288863    0.014314    0.240217  
      0.000000  0.000000  0.427472    -0.040764   -0.234318   -0.000739  
 
   6 f  =   31.788350 THz   199.732091 2PiTHz 1060.345173 cm-1   131.466093 meV
             X         Y         Z           dx          dy          dz
      0.939487  0.000000  0.024176    -0.196900    0.002845   -0.484737  
     -0.469743  0.813619  0.024176     0.104131   -0.169425   -0.492151  
      2.030257  3.516508  0.024176     0.103040    0.171037   -0.496830  
      0.000000  0.000000  0.427472    -0.002747   -0.001123    0.397204  
 
   7 f  =    3.705864 THz    23.284632 2PiTHz  123.614324 cm-1    15.326228 meV
             X         Y         Z           dx          dy          dz
      0.939487  0.000000  0.024176    -0.031795   -0.515902   -0.025617  
     -0.469743  0.813619  0.024176     0.458620    0.337847    0.106446  
      2.030257  3.516508  0.024176    -0.518413    0.336086   -0.083199  
      0.000000  0.000000  0.427472    -0.080608    0.035250   -0.002324  
 
   8 f  =    0.925202 THz     5.813214 2PiTHz   30.861409 cm-1     3.826328 meV
             X         Y         Z           dx          dy          dz
      0.939487  0.000000  0.024176     0.205489    0.159636   -0.005802  
     -0.469743  0.813619  0.024176     0.210724    0.171432   -0.043738  
      2.030257  3.516508  0.024176     0.197073    0.172458   -0.205889  
      0.000000  0.000000  0.427472     0.642225    0.480483   -0.319787  
 
   9 f  =    0.473474 THz     2.974924 2PiTHz   15.793389 cm-1     1.958131 meV
             X         Y         Z           dx          dy          dz
      0.939487  0.000000  0.024176     0.131562   -0.280210   -0.028854  
     -0.469743  0.813619  0.024176     0.189496   -0.180547   -0.131906  
      2.030257  3.516508  0.024176     0.072409   -0.179509   -0.050833  
      0.000000  0.000000  0.427472     0.426413   -0.725784   -0.262289  
 
  10 f/i=    0.180161 THz     1.131986 2PiTHz    6.009531 cm-1     0.745087 meV
             X         Y         Z           dx          dy          dz
      0.939487  0.000000  0.024176     0.113755   -0.039938    0.225610  
     -0.469743  0.813619  0.024176     0.137435    0.003954    0.209199  
      2.030257  3.516508  0.024176     0.087051    0.004073    0.215657  
      0.000000  0.000000  0.427472     0.410643   -0.033142    0.805026  
 
  11 f/i=    4.986733 THz    31.332569 2PiTHz  166.339513 cm-1    20.623479 meV
             X         Y         Z           dx          dy          dz
      0.939487  0.000000  0.024176     0.032234    0.287062    0.148766  
     -0.469743  0.813619  0.024176    -0.038942    0.169890    0.539201  
      2.030257  3.516508  0.024176     0.098608    0.167317   -0.649091  
      0.000000  0.000000  0.427472    -0.102381   -0.320245    0.035103  
 
  12 f/i=    6.801492 THz    42.735033 2PiTHz  226.873337 cm-1    28.128719 meV
             X         Y         Z           dx          dy          dz
      0.939487  0.000000  0.024176    -0.224162    0.073636   -0.711066  
     -0.469743  0.813619  0.024176    -0.242201    0.031515    0.454491  
      2.030257  3.516508  0.024176    -0.189466    0.029085    0.215680  
      0.000000  0.000000  0.427472     0.292403   -0.052653   -0.031067  
 
 Eigenvectors after division by SQRT(mass)
 
 Eigenvectors and eigenvalues of the dynamical matrix
 ----------------------------------------------------
 
 
   1 f  =  105.246572 THz   661.283713 2PiTHz 3510.647640 cm-1   435.264990 meV
             X         Y         Z           dx          dy          dz
      0.939487  0.000000  0.024176     0.146020   -0.025587   -0.061341  
     -0.469743  0.813619  0.024176    -0.275696    0.444532   -0.217135  
      2.030257  3.516508  0.024176     0.356943    0.604042    0.288316  
      0.000000  0.000000  0.427472    -0.016151   -0.072914   -0.000721  
 
   2 f  =  105.098232 THz   660.351669 2PiTHz 3505.699571 cm-1   434.651507 meV
             X         Y         Z           dx          dy          dz
      0.939487  0.000000  0.024176     0.690621    0.006179   -0.288211  
     -0.469743  0.813619  0.024176     0.235269   -0.447046    0.207864  
      2.030257  3.516508  0.024176     0.095035    0.213777    0.094914  
      0.000000  0.000000  0.427472    -0.072752    0.016184   -0.001050  
 
   3 f  =  101.604479 THz   638.399768 2PiTHz 3389.160499 cm-1   420.202499 meV
             X         Y         Z           dx          dy          dz
      0.939487  0.000000  0.024176     0.564923   -0.000422   -0.190189  
     -0.469743  0.813619  0.024176    -0.269810    0.466009   -0.178595  
      2.030257  3.516508  0.024176    -0.261489   -0.451893   -0.171109  
      0.000000  0.000000  0.427472    -0.002407   -0.000969    0.038613  
 
   4 f  =   48.799542 THz   306.616563 2PiTHz 1627.777446 cm-1   201.818754 meV
             X         Y         Z           dx          dy          dz
      0.939487  0.000000  0.024176     0.135917    0.124768    0.245060  
     -0.469743  0.813619  0.024176    -0.445356   -0.359979   -0.162196  
      2.030257  3.516508  0.024176    -0.578872    0.389859   -0.088324  
      0.000000  0.000000  0.427472     0.062735   -0.010958    0.000297  
 
   5 f  =   48.637165 THz   305.596322 2PiTHz 1622.361153 cm-1   201.147219 meV
             X         Y         Z           dx          dy          dz
      0.939487  0.000000  0.024176    -0.023807    0.723984   -0.042508  
     -0.469743  0.813619  0.024176     0.465774    0.145219   -0.193703  
      2.030257  3.516508  0.024176    -0.288863    0.014314    0.240217  
      0.000000  0.000000  0.427472    -0.010894   -0.062622   -0.000198  
 
   6 f  =   31.788350 THz   199.732091 2PiTHz 1060.345173 cm-1   131.466093 meV
             X         Y         Z           dx          dy          dz
      0.939487  0.000000  0.024176    -0.196900    0.002845   -0.484737  
     -0.469743  0.813619  0.024176     0.104131   -0.169425   -0.492151  
      2.030257  3.516508  0.024176     0.103040    0.171037   -0.496830  
      0.000000  0.000000  0.427472    -0.000734   -0.000300    0.106153  
 
   7 f  =    3.705864 THz    23.284632 2PiTHz  123.614324 cm-1    15.326228 meV
             X         Y         Z           dx          dy          dz
      0.939487  0.000000  0.024176    -0.031795   -0.515902   -0.025617  
     -0.469743  0.813619  0.024176     0.458620    0.337847    0.106446  
      2.030257  3.516508  0.024176    -0.518413    0.336086   -0.083199  
      0.000000  0.000000  0.427472    -0.021543    0.009421   -0.000621  
 
   8 f  =    0.925202 THz     5.813214 2PiTHz   30.861409 cm-1     3.826328 meV
             X         Y         Z           dx          dy          dz
      0.939487  0.000000  0.024176     0.205489    0.159636   -0.005802  
     -0.469743  0.813619  0.024176     0.210724    0.171432   -0.043738  
      2.030257  3.516508  0.024176     0.197073    0.172458   -0.205889  
      0.000000  0.000000  0.427472     0.171636    0.128410   -0.085464  
 
   9 f  =    0.473474 THz     2.974924 2PiTHz   15.793389 cm-1     1.958131 meV
             X         Y         Z           dx          dy          dz
      0.939487  0.000000  0.024176     0.131562   -0.280210   -0.028854  
     -0.469743  0.813619  0.024176     0.189496   -0.180547   -0.131906  
      2.030257  3.516508  0.024176     0.072409   -0.179509   -0.050833  
      0.000000  0.000000  0.427472     0.113960   -0.193967   -0.070097  
 
  10 f/i=    0.180161 THz     1.131986 2PiTHz    6.009531 cm-1     0.745087 meV
             X         Y         Z           dx          dy          dz
      0.939487  0.000000  0.024176     0.113755   -0.039938    0.225610  
     -0.469743  0.813619  0.024176     0.137435    0.003954    0.209199  
      2.030257  3.516508  0.024176     0.087051    0.004073    0.215657  
      0.000000  0.000000  0.427472     0.109745   -0.008857    0.215145  
 
  11 f/i=    4.986733 THz    31.332569 2PiTHz  166.339513 cm-1    20.623479 meV
             X         Y         Z           dx          dy          dz
      0.939487  0.000000  0.024176     0.032234    0.287062    0.148766  
     -0.469743  0.813619  0.024176    -0.038942    0.169890    0.539201  
      2.030257  3.516508  0.024176     0.098608    0.167317   -0.649091  
      0.000000  0.000000  0.427472    -0.027361   -0.085586    0.009381  
 
  12 f/i=    6.801492 THz    42.735033 2PiTHz  226.873337 cm-1    28.128719 meV
             X         Y         Z           dx          dy          dz
      0.939487  0.000000  0.024176    -0.224162    0.073636   -0.711066  
     -0.469743  0.813619  0.024176    -0.242201    0.031515    0.454491  
      2.030257  3.516508  0.024176    -0.189466    0.029085    0.215680  
      0.000000  0.000000  0.427472     0.078145   -0.014072   -0.008303  
 
 Finite differences POTIM=  3.000000000000000E-003
  LATTYP: Found a hexagonal cell.
 ALAT       =     5.0000000000
 C/A-ratio  =     1.0000000000
  
  Lattice vectors:
  
 A1 = (   5.0000000000,   0.0000000000,   0.0000000000)
 A2 = (  -2.5000000000,   4.3301270189,   0.0000000000)
 A3 = (   0.0000000000,   0.0000000000,   5.0000000000)
 Subroutine PRICEL returns:
 Original cell was already a primitive cell.
 

Analysis of symmetry for initial positions (statically):

 Routine SETGRP: Setting up the symmetry group for a 
 hexagonal supercell.


 Subroutine GETGRP returns: Found  6 space group operations
 (whereof  6 operations were pure point group operations)
 out of a pool of 24 trial point group operations.


The static configuration has the point symmetry C_3v.

Analysis of symmetry for dynamics (positions and initial velocities):

 Subroutine DYNSYM returns: Found  6 space group operations
 (whereof  6 operations were pure point group operations)
 out of a pool of  6 trial space group operations
 (whereof  6 operations were pure point group operations)
 and found also     1 'primitive' translations


The dynamic configuration has the point symmetry C_3v.

 mean value of Nose-termostat <S>:     1.000 mean value of <T> :     0.000
 mean temperature <T/S>/<1/S>  :     0.000

 writing wavefunctions
     LOOP+:  VPU time   47.81: CPU time   48.35
  
  
 General timing and accounting informations for this job:
 ========================================================
  
                  Total CPU time used (sec):     1097.073
                            User time (sec):     1004.539
                          System time (sec):       92.534
                         Elapsed time (sec):     1101.366
  
                   Maximum memory used (kb):           0.
                   Average memory used (kb):           0.
  
                          Minor page faults:     12809819
                          Major page faults:           57
                 Voluntary context switches:         8793
