 vasp.4.6.28 25Jul05 complex 
 executed on             LinuxPgi date 2010.01.06  12:41:11
 running on    8 nodes
 distr:  one band on    1 nodes,    8 groups


--------------------------------------------------------------------------------------------------------


 INCAR:
 POTCAR:    PAW H                                 
 POTCAR:    PAW O                                 
 POTCAR:    PAW Pd                                
 POTCAR:    PAW H                                 
   VRHFIN =H: ultrasoft test                                                    
   LEXCH  = 91                                                                  
   EATOM  =    12.5313 eV,     .9210 Ry                                         
                                                                                
   TITEL  = PAW H                                                               
   LULTRA =        F    use ultrasoft PP ?                                      
   IUNSCR =        0    unscreen: 0-lin 1-nonlin 2-no                           
   RPACOR =     .000    partial core radius                                     
   POMASS =    1.000; ZVAL   =    1.000    mass and valenz                      
   RCORE  =    1.100    outmost cutoff radius                                   
   RWIGS  =     .700; RWIGS  =     .370    wigner-seitz radius (au A)           
   ENMAX  =  250.000; ENMIN  =  200.000 eV                                      
   RCLOC  =     .701    cutoff for local pot                                    
   LCOR   =        T    correct aug charges                                     
   LPAW   =        T    paw PP                                                  
   EAUG   =  400.000                                                            
   RMAX   =    2.174    core radius for proj-oper                               
   RAUG   =    1.200    factor for augmentation sphere                          
   RDEP   =    1.112    core radius for depl-charge                             
   QCUT   =   -5.749; QGAM   =   11.498    optimization parameters              
                                                                                
   Description                                                                  
     l     E      TYP  RCUT    TYP  RCUT                                        
     0   .000     23  1.100                                                     
     0   .500     23  1.100                                                     
     1  -.300     23  1.100                                                     
  local pseudopotential read in
  atomic valenz-charges read in
  non local Contribution for L=            0  read in
    real space projection operators read in
  non local Contribution for L=            0  read in
    real space projection operators read in
  non local Contribution for L=            1  read in
    real space projection operators read in
    PAW grid and wavefunctions read in

   number of l-projection  operators is LMAX  =            3
   number of lm-projection operators is LMMAX =            5

 POTCAR:    PAW O                                 
   VRHFIN =O: s2p4                                                              
   LEXCH  = 91                                                                  
   EATOM  =   433.0277 eV,   31.8266 Ry                                         
                                                                                
   TITEL  = PAW O                                                               
   LULTRA =        F    use ultrasoft PP ?                                      
   IUNSCR =        0    unscreen: 0-lin 1-nonlin 2-no                           
   RPACOR =     .000    partial core radius                                     
   POMASS =   16.000; ZVAL   =    6.000    mass and valenz                      
   RCORE  =    1.520    outmost cutoff radius                                   
   RWIGS  =    1.550; RWIGS  =     .820    wigner-seitz radius (au A)           
   ENMAX  =  400.000; ENMIN  =  300.000 eV                                      
   ICORE  =        2    local potential                                         
   LCOR   =        T    correct aug charges                                     
   LPAW   =        T    paw PP                                                  
   EAUG   =  605.392                                                            
   DEXC   =     .000                                                            
   RMAX   =    2.264    core radius for proj-oper                               
   RAUG   =    1.300    factor for augmentation sphere                          
   RDEP   =    1.550    radius for radial grids                                 
   QCUT   =   -5.520; QGAM   =   11.040    optimization parameters              
                                                                                
   Description                                                                  
     l     E      TYP  RCUT    TYP  RCUT                                        
     0   .000     23  1.200                                                     
     0  -.700     23  1.200                                                     
     1   .000     23  1.520                                                     
     1   .600     23  1.520                                                     
     2   .000      7  1.500                                                     
  local pseudopotential read in
  atomic valenz-charges read in
  non local Contribution for L=            0  read in
    real space projection operators read in
  non local Contribution for L=            0  read in
    real space projection operators read in
  non local Contribution for L=            1  read in
    real space projection operators read in
  non local Contribution for L=            1  read in
    real space projection operators read in
    PAW grid and wavefunctions read in

   number of l-projection  operators is LMAX  =            4
   number of lm-projection operators is LMMAX =            8

 POTCAR:    PAW Pd                                
   VRHFIN =Pd : s1 d9                                                           
   LEXCH  = 91                                                                  
   EATOM  =   810.7745 eV,   59.5902 Ry                                         
                                                                                
   TITEL  = PAW Pd                                                              
   LULTRA =        F    use ultrasoft PP ?                                      
   IUNSCR =        1    unscreen: 0-lin 1-nonlin 2-no                           
   RPACOR =    2.000    partial core radius                                     
   POMASS =  106.420; ZVAL   =   10.000    mass and valenz                      
   RCORE  =    2.400    outmost cutoff radius                                   
   RWIGS  =    2.710; RWIGS  =    1.434    wigner-seitz radius (au A)           
   ENMAX  =  250.918; ENMIN  =  188.188 eV                                      
   RCLOC  =    1.862    cutoff for local pot                                    
   LCOR   =        T    correct aug charges                                     
   LPAW   =        T    paw PP                                                  
   EAUG   =  416.230                                                            
   DEXC   =    -.044                                                            
   RMAX   =    2.911    core radius for proj-oper                               
   RAUG   =    1.300    factor for augmentation sphere                          
   RDEP   =    2.405    core radius for depl-charge                             
   QCUT   =   -4.294; QGAM   =    8.589    optimization parameters              
                                                                                
   Description                                                                  
     l     E      TYP  RCUT    TYP  RCUT                                        
     2   .000     23  2.400                                                     
     2   .000     23  2.400                                                     
     0   .000     23  2.400                                                     
     0   .000     23  2.400                                                     
     1  -.200     23  2.400                                                     
     1   .000     23  2.400                                                     
     3   .000      7   .000                                                     
  local pseudopotential read in
  partial core-charges read in
  atomic valenz-charges read in
  non local Contribution for L=            2  read in
    real space projection operators read in
  non local Contribution for L=            2  read in
    real space projection operators read in
  non local Contribution for L=            0  read in
    real space projection operators read in
  non local Contribution for L=            0  read in
    real space projection operators read in
  non local Contribution for L=            1  read in
    real space projection operators read in
  non local Contribution for L=            1  read in
    real space projection operators read in
    PAW grid and wavefunctions read in

   number of l-projection  operators is LMAX  =            6
   number of lm-projection operators is LMMAX =           18

 Optimization of the real space projectors (new method)

 maximal supplied QI-value         = 34.20
 optimisation between [QCUT,QGAM] = [ 10.26, 26.00] = [ 29.48,189.23] Ry 
 Optimized for a Real-space Cutoff    0.88 Angstroem

   l    n(q)    QCUT    max X(q) W(low)/X(q) W(high)/X(q)  e(spline) 
   0      7    10.261     4.435    0.21E-04    0.19E-04    0.12E-07
   0      7    10.261    16.011    0.32E-03    0.36E-03    0.34E-07
   1      6    10.261     4.617    0.29E-03    0.36E-03    0.61E-07
 Optimization of the real space projectors (new method)

 maximal supplied QI-value         = 24.76
 optimisation between [QCUT,QGAM] = [ 10.40, 25.99] = [ 30.27,189.20] Ry 
 Optimized for a Real-space Cutoff    1.02 Angstroem

   l    n(q)    QCUT    max X(q) W(low)/X(q) W(high)/X(q)  e(spline) 
   0      8    10.397     4.138    0.27E-04    0.17E-04    0.12E-07
   0      8    10.397     8.500    0.18E-03    0.58E-04    0.17E-06
   1      7    10.397     2.482    0.26E-04    0.27E-05    0.22E-07
   1      7    10.397     3.878    0.18E-03    0.13E-03    0.93E-07
 Optimization of the real space projectors (new method)

 maximal supplied QI-value         = 15.68
 optimisation between [QCUT,QGAM] = [ 10.35, 26.04] = [ 30.01,189.83] Ry 
 Optimized for a Real-space Cutoff    1.33 Angstroem

   l    n(q)    QCUT    max X(q) W(low)/X(q) W(high)/X(q)  e(spline) 
   2      9    10.352     3.678    0.15E-04    0.92E-06    0.11E-06
   2      9    10.352    27.581    0.32E-03    0.42E-03    0.34E-05
   0     10    10.352    18.529    0.23E-04    0.15E-04    0.13E-06
   0     10    10.352    72.518    0.10E-03    0.18E-03    0.18E-05
   1     10    10.352     7.283    0.86E-04    0.15E-04    0.36E-06
   1     10    10.352     9.762    0.36E-03    0.28E-04    0.14E-05
  PAW H                                 :
 energy of atom  1       EATOM=  -12.5313
 kinetic energy error for atom=    0.0078 (will be added to EATOM!!)
  PAW O                                 :
 energy of atom  2       EATOM= -433.0277
 kinetic energy error for atom=    0.0814 (will be added to EATOM!!)
  PAW Pd                                :
 energy of atom  3       EATOM= -810.7745
 kinetic energy error for atom=    0.0069 (will be added to EATOM!!)

 EXHCAR: internal setup
 exchange correlation table for  LEXCH =        7
   RHO(1)=    0.500       N(1)  =     2000
   RHO(2)=  100.500       N(2)  =     4000

 POSCAR: Pd - (111)                              
  positions in direct lattice
  velocities in cartesian coordinates
  No initial velocities read in



--------------------------------------------------------------------------------------------------------


 ion  position               nearest neighbor table
   1  0.792  0.898  0.448-   3 0.98
   2  0.803  0.200  0.384-   6 1.79   5 1.81
   3  0.954  0.068  0.432-   1 0.98   4 2.07
   4  0.009  0.997  0.336-   3 2.07   5 2.77   6 2.77   7 2.80   7 2.80   8 2.82   6 2.82   5 2.83
                            11 2.84  10 2.89
   5  0.004  0.499  0.334-   2 1.81   4 2.77   6 2.79   7 2.79   7 2.80   6 2.81  10 2.81   9 2.82
                             4 2.83  11 2.83
   6  0.507  0.001  0.334-   2 1.79   4 2.77   5 2.79   7 2.80   7 2.80  10 2.80   5 2.81   4 2.82
                             8 2.83   9 2.83
   7  0.505  0.500  0.330-  11 2.75   8 2.76   9 2.78   5 2.79   6 2.80   4 2.80   4 2.80   6 2.80
                             5 2.80
   8  0.331  0.164  0.222-   7 2.76  11 2.77  10 2.79  13 2.79   9 2.79  12 2.80  14 2.80   9 2.80
                            10 2.81   4 2.82   6 2.83  11 2.83
   9  0.335  0.667  0.221-  15 2.78  12 2.78   7 2.78  13 2.78   8 2.79  11 2.79  10 2.80  10 2.80
                            11 2.80   8 2.80   5 2.82   6 2.83
  10  0.834  0.168  0.222-  12 2.78  14 2.79  15 2.79   8 2.79  11 2.79   9 2.80   9 2.80  11 2.80
                             6 2.80   8 2.81   5 2.81   4 2.89
  11  0.836  0.669  0.222-   7 2.75   8 2.77  13 2.78  15 2.79  10 2.79   9 2.79  14 2.80   9 2.80
                            10 2.80   5 2.83   8 2.83   4 2.84
  12  0.167  0.333  0.111-   9 2.78  10 2.78   8 2.80  17 2.80  19 2.80  16 2.80  15 2.80  13 2.80
                            14 2.80  14 2.80  15 2.80  13 2.80
  13  0.167  0.833  0.111-   9 2.78  11 2.78   8 2.79  18 2.80  16 2.80  14 2.80  12 2.80  15 2.80
                            15 2.80  12 2.80  17 2.80  14 2.80
  14  0.667  0.333  0.111-  10 2.79  19 2.80  17 2.80  13 2.80  18 2.80  15 2.80  12 2.80  12 2.80
                            15 2.80  13 2.80  11 2.80   8 2.80
  15  0.667  0.833  0.111-   9 2.78  10 2.79  11 2.79  16 2.80  18 2.80  12 2.80  14 2.80  13 2.80
                            13 2.80  12 2.80  14 2.80  19 2.80
  16  0.000  0.000  0.000-  17 2.80  19 2.80  15 2.80  13 2.80  12 2.80  18 2.80  18 2.80  19 2.80
                            17 2.80
  17  1.000  0.500  0.000-  12 2.80  16 2.80  14 2.80  18 2.80  19 2.80  19 2.80  13 2.80  18 2.80
                            16 2.80
  18  0.500  0.000  0.000-  19 2.80  13 2.80  17 2.80  15 2.80  14 2.80  16 2.80  16 2.80  17 2.80
                            19 2.80
  19  0.500  0.500  0.000-  14 2.80  12 2.80  18 2.80  16 2.80  17 2.80  17 2.80  15 2.80  16 2.80
                            18 2.80

  LATTYP: Found a hexagonal cell.
 ALAT       =     5.5960428193
 C/A-ratio  =     3.6742347603
  
  Lattice vectors:
  
 A1 = (   5.5960430569,   0.0000000000,   0.0000000000)
 A2 = (  -2.7980215285,   4.8463151736,   0.0000000000)
 A3 = (   0.0000000000,   0.0000000000,  20.5611750468)
 Subroutine PRICEL returns:
 Original cell was already a primitive cell.
 

Analysis of symmetry for initial positions (statically):

 Routine SETGRP: Setting up the symmetry group for a 
 hexagonal supercell.


 Subroutine GETGRP returns: Found  1 space group operations
 (whereof  1 operations were pure point group operations)
 out of a pool of 24 trial point group operations.


The static configuration has the point symmetry C_1 .

Analysis of symmetry for dynamics (positions and initial velocities):

 Subroutine DYNSYM returns: Found  1 space group operations
 (whereof  1 operations were pure point group operations)
 out of a pool of  1 trial space group operations
 (whereof  1 operations were pure point group operations)
 and found also     1 'primitive' translations


The dynamic configuration has the point symmetry C_1 .

Analysis of constrained symmetry for selective dynamics:

 Subroutine DYNSYM returns: Found  1 space group operations
 (whereof  1 operations were pure point group operations)
 out of a pool of  1 trial space group operations
 (whereof  1 operations were pure point group operations)
 and found also     1 'primitive' translations


The constrained configuration has the point symmetry C_1 .


 KPOINTS: Automatic mesh                          

Automatic generation of k-mesh.
 
 Subroutine IBZKPT returns following result:
 ===========================================
 
 Found     25 irreducible k-points:
 
 Following reciprocal coordinates:
            Coordinates               Weight
  0.000000  0.000000  0.000000      1.000000
  0.142857  0.000000  0.000000      2.000000
  0.285714  0.000000  0.000000      2.000000
  0.428571  0.000000  0.000000      2.000000
  0.000000  0.142857  0.000000      2.000000
  0.142857  0.142857  0.000000      2.000000
  0.285714  0.142857  0.000000      2.000000
  0.428571  0.142857  0.000000      2.000000
 -0.428571  0.142857  0.000000      2.000000
 -0.285714  0.142857  0.000000      2.000000
 -0.142857  0.142857  0.000000      2.000000
  0.000000  0.285714  0.000000      2.000000
  0.142857  0.285714  0.000000      2.000000
  0.285714  0.285714  0.000000      2.000000
  0.428571  0.285714  0.000000      2.000000
 -0.428571  0.285714  0.000000      2.000000
 -0.285714  0.285714  0.000000      2.000000
 -0.142857  0.285714  0.000000      2.000000
  0.000000  0.428571  0.000000      2.000000
  0.142857  0.428571  0.000000      2.000000
  0.285714  0.428571  0.000000      2.000000
  0.428571  0.428571  0.000000      2.000000
 -0.428571  0.428571  0.000000      2.000000
 -0.285714  0.428571  0.000000      2.000000
 -0.142857  0.428571  0.000000      2.000000
 
 Following cartesian coordinates:
            Coordinates               Weight
  0.000000  0.000000  0.000000      1.000000
  0.025528  0.014739  0.000000      2.000000
  0.051056  0.029477  0.000000      2.000000
  0.076585  0.044216  0.000000      2.000000
  0.000000  0.029477  0.000000      2.000000
  0.025528  0.044216  0.000000      2.000000
  0.051056  0.058955  0.000000      2.000000
  0.076585  0.073694  0.000000      2.000000
 -0.076585 -0.014739  0.000000      2.000000
 -0.051056  0.000000  0.000000      2.000000
 -0.025528  0.014739  0.000000      2.000000
  0.000000  0.058955  0.000000      2.000000
  0.025528  0.073694  0.000000      2.000000
  0.051056  0.088432  0.000000      2.000000
  0.076585  0.103171  0.000000      2.000000
 -0.076585  0.014739  0.000000      2.000000
 -0.051056  0.029477  0.000000      2.000000
 -0.025528  0.044216  0.000000      2.000000
  0.000000  0.088432  0.000000      2.000000
  0.025528  0.103171  0.000000      2.000000
  0.051056  0.117910  0.000000      2.000000
  0.076585  0.132649  0.000000      2.000000
 -0.076585  0.044216  0.000000      2.000000
 -0.051056  0.058955  0.000000      2.000000
 -0.025528  0.073694  0.000000      2.000000
 


--------------------------------------------------------------------------------------------------------




 Dimension of arrays:
   k-Points           NKPTS =     25   number of bands    NBANDS=    104
   number of dos      NEDOS =    301   number of ions     NIONS =     19
   non local maximal  LDIM  =      6   non local SUM 2l+1 LMDIM =     18
   total plane-waves  NPLWV = 224000
   max r-space proj   IRMAX =   4040   max aug-charges    IRDMAX=   8967
   dimension x,y,z NGX =    40 NGY =   40 NGZ =  140
   dimension x,y,z NGXF=    60 NGYF=   60 NGZF=  224
   support grid    NGXF=    60 NGYF=   60 NGZF=  224
   ions per type =               2   1  16
 NGX,Y,Z   is equivalent  to a cutoff of  11.88, 11.88, 11.32 a.u.
 NGXF,Y,Z  is equivalent  to a cutoff of  17.82, 17.82, 18.11 a.u.


 I would recommend the setting:
   dimension x,y,z NGX =    37 NGY =   37 NGZ =  137
 SYSTEM =  unknown system                          
 POSCAR =  Pd - (111)                              

 Startparameter for this run:
   NWRITE =      2    write-flag & timer
   PREC   = high      medium, high low
   ISTART =      0    job   : 0-new  1-cont  2-samecut
   ICHARG =      2    charge: 1-file 2-atom 10-const
   ISPIN  =      1    spin polarized calculation?
   LNONCOLLINEAR =      F non collinear calculations
   LSORBIT =      F    spin-orbit coupling
   INIWAV =      1    electr: 0-lowe 1-rand  2-diag
   LASPH  =      F    aspherical Exc in radial PAW
   METAGGA=      F    non-selfconsistent MetaGGA calc.

 Electronic Relaxation 1
   ENCUT  =  415.0 eV  30.50 Ry    5.52 a.u.   9.30  9.30 34.15*2*pi/ulx,y,z
   ENINI  =  415.0     initial cutoff
   ENAUG  =  605.4 eV  augmentation charge cutoff
   NELM   =     60;   NELMIN=  2; NELMDL= -5     # of ELM steps 
   EDIFF  = 0.1E-03   stopping-criterion for ELM
   LREAL  =      T    real-space projection
   LCOMPAT=      F    compatible to vasp.4.4
   LREAL_COMPAT= F    compatible to vasp.4.5.1-3
   GGA_COMPAT  = T    GGA compatible to vasp.4.4-vasp.4.6
   LMAXPAW     = -100 max onsite density
   LMAXMIX     =    2 max onsite mixed and CHGCAR
   VOSKOWN=      0    Vosko Wilk Nusair interpolation
   ROPT   =   -0.00040  -0.00040  -0.00040
 Ionic relaxation
   EDIFFG = 0.1E-02   stopping-criterion for IOM
   NSW    =    229    number of steps for IOM
   NBLOCK =      1;   KBLOCK =      1    inner block; outer block 
   IBRION =      5    ionic relax: 0-MD 1-quasi-New 2-CG
   NFREE  =      2    steps in history (QN), initial steepest desc. (CG)
   ISIF   =      2    stress and relaxation
   IWAVPR =     11    prediction:  0-non 1-charg 2-wave 3-comb
   ISYM   =      2    0-nonsym 1-usesym 2-fastsym
   LCORR  =      T    Harris-Foulkes like correction to forces

   POTIM  =   0.05    time-step for ionic-motion
   TEIN   =    0.0    initial temperature
   TEBEG  =    0.0;   TEEND  =   0.0 temperature during run
   SMASS  =  -3.00    Nose mass-parameter (am)
   estimated Nose-frequenzy (Omega)   =  0.10E-29 period in steps =****** mass=  -0.716E-27a.u.
   NPACO  =    256;   APACO  = 16.0  distance and # of slots for P.C.
   PSTRESS=    0.0 pullay stress

  Mass of Ions in am
   POMASS =   1.00 16.00106.42
  Ionic Valenz
   ZVAL   =   1.00  6.00 10.00
  Atomic Wigner-Seitz radii
   RWIGS  =  -1.00 -1.00 -1.00
   NELECT =     168.0000    total number of electrons
   NUPDOWN=      -1.0000    fix difference up-down

 DOS related values:
   EMIN   = -15.00;   EMAX   =  0.00  energy-range for DOS
   ISMEAR =     0;   SIGMA  =   0.01  broadening in eV -4-tet -1-fermi 0-gaus

 Electronic relaxation 2 (details)
   IALGO  =     38    algorithm
   LDIAG  =      T    sub-space diagonalisation
   IMIX   =      4    mixing-type and parameters
     AMIX     =   0.40;   BMIX     =  1.00
     AMIX_MAG =   1.60;   BMIX_MAG =  1.00
     AMIN     =   0.10
     WC   =   100.;   INIMIX=   1;  MIXPRE=   1

 Intra band minimization:
   WEIMIN = 0.0010     energy-eigenvalue tresh-hold
   EBREAK =  0.25E-06  absolut break condition
   DEPER  =   0.30     relativ break condition  

   TIME   =   0.10     timestep for ELM

  volume/ion in A,a.u.               =      29.35       198.05
  Fermi-wavevector in a.u.,eV,Ry     =   1.097483 16.387788  1.204468

 Second variation
   LSECVAR=     F    do a second variation

 Write flags
   LWAVE  =      F    write WAVECAR
   LCHARG =      F    write CHGCAR
   LVTOT  =      F    write LOCPOT, local potential
   LELF   =      F    write electronic localiz. function (ELF)
   LORBIT =      0    0 simple, 1 ext, 2 COOP (PROOUT)


 Dipole corrections
   IDIPOL =      0    1-x, 2-y, 3-z
   LDIPOL =      F    correct potential



--------------------------------------------------------------------------------------------------------


 finite differences
   using selective dynamics as specified on POSCAR
 charge density will be updated during run
 non-spin polarized calculation
 Variant of blocked Davidson
 Davidson routine will perform the subspace rotation
 performe sub-space diagonalisation
    after iterative eigenvector-optimisation
 modified Broyden-mixing scheme, WC =      100.0
 initial mixing is a Kerker type mixing with AMIX =  0.4000 and BMIX =      1.0000
 Hartree-type preconditioning will be used
 using additional bands            20
 real space projection scheme for non local part
 use partial core corrections
 calculate Harris-corrections to forces 
   (improved forces if not selfconsistent)
 use gradient corrections 
 use of overlap-Matrix (Vanderbilt PP)
 Gauss-broadening in eV      SIGMA  =   0.01


--------------------------------------------------------------------------------------------------------


  energy-cutoff  :      415.00
  volume of cell :      557.62
      direct lattice vectors                 reciprocal lattice vectors
     5.596043057  0.000000000  0.000000000     0.178697696  0.103171169  0.000000000
    -2.798021529  4.846315174  0.000000000     0.000000000  0.206342337  0.000000000
     0.000000000  0.000000000 20.561175047     0.000000000  0.000000000  0.048635353

  length of vectors
     5.596043057  5.596042819 20.561175047     0.206342328  0.206342337  0.048635353



 k-points in units of 2pi/SCALE and weight: Automatic mesh                          
   0.00000000  0.00000000  0.00000000       0.020
   0.02552824  0.01473874  0.00000000       0.041
   0.05105648  0.02947748  0.00000000       0.041
   0.07658473  0.04421622  0.00000000       0.041
   0.00000000  0.02947748  0.00000000       0.041
   0.02552824  0.04421622  0.00000000       0.041
   0.05105648  0.05895495  0.00000000       0.041
   0.07658473  0.07369369  0.00000000       0.041
  -0.07658473 -0.01473874  0.00000000       0.041
  -0.05105648  0.00000000  0.00000000       0.041
  -0.02552824  0.01473874  0.00000000       0.041
   0.00000000  0.05895495  0.00000000       0.041
   0.02552824  0.07369369  0.00000000       0.041
   0.05105648  0.08843243  0.00000000       0.041
   0.07658473  0.10317117  0.00000000       0.041
  -0.07658473  0.01473874  0.00000000       0.041
  -0.05105648  0.02947748  0.00000000       0.041
  -0.02552824  0.04421622  0.00000000       0.041
   0.00000000  0.08843243  0.00000000       0.041
   0.02552824  0.10317117  0.00000000       0.041
   0.05105648  0.11790991  0.00000000       0.041
   0.07658473  0.13264865  0.00000000       0.041
  -0.07658473  0.04421622  0.00000000       0.041
  -0.05105648  0.05895495  0.00000000       0.041
  -0.02552824  0.07369369  0.00000000       0.041

 k-points in reciprocal lattice and weights: Automatic mesh                          
   0.00000000  0.00000000  0.00000000       0.020
   0.14285714  0.00000000  0.00000000       0.041
   0.28571429  0.00000000  0.00000000       0.041
   0.42857143  0.00000000  0.00000000       0.041
   0.00000000  0.14285714  0.00000000       0.041
   0.14285714  0.14285714  0.00000000       0.041
   0.28571429  0.14285714  0.00000000       0.041
   0.42857143  0.14285714  0.00000000       0.041
  -0.42857143  0.14285714  0.00000000       0.041
  -0.28571429  0.14285714  0.00000000       0.041
  -0.14285714  0.14285714  0.00000000       0.041
   0.00000000  0.28571429  0.00000000       0.041
   0.14285714  0.28571429  0.00000000       0.041
   0.28571429  0.28571429  0.00000000       0.041
   0.42857143  0.28571429  0.00000000       0.041
  -0.42857143  0.28571429  0.00000000       0.041
  -0.28571429  0.28571429  0.00000000       0.041
  -0.14285714  0.28571429  0.00000000       0.041
   0.00000000  0.42857143  0.00000000       0.041
   0.14285714  0.42857143  0.00000000       0.041
   0.28571429  0.42857143  0.00000000       0.041
   0.42857143  0.42857143  0.00000000       0.041
  -0.42857143  0.42857143  0.00000000       0.041
  -0.28571429  0.42857143  0.00000000       0.041
  -0.14285714  0.42857143  0.00000000       0.041

 position of ions in fractional coordinates (direct lattice) 
   0.79237236  0.89842937  0.44816914
   0.80250756  0.19956843  0.38408972
   0.95373390  0.06760868  0.43238829
   0.00915440  0.99652050  0.33614367
   0.00431554  0.49913883  0.33385521
   0.50698214  0.00103383  0.33387161
   0.50547999  0.49969830  0.33044975
   0.33090120  0.16419667  0.22214742
   0.33462687  0.66709549  0.22113081
   0.83415648  0.16765186  0.22150034
   0.83644318  0.66949700  0.22179702
   0.16666683  0.33333367  0.11111087
   0.16666722  0.83333416  0.11111087
   0.66666656  0.33333367  0.11111087
   0.66666695  0.83333416  0.11111087
   0.00000000  0.00000000  0.00000000
   0.99999935  0.49999843  0.00000000
   0.49999973  0.00000000  0.00000000
   0.49999908  0.49999843  0.00000000

 position of ions in cartesian coordinates  (Angst):
   1.92032511  4.35407188  9.21488418
   3.93247010  0.96717150  7.89733597
   5.14796542  0.32765297  8.89041135
  -2.73705737  4.82945241  6.91150893
  -1.37245125  2.41898407  6.86445536
   2.83420120  0.00501028  6.86479258
   1.43052119  2.42169543  6.79443521
   1.39231156  0.79574882  4.56761206
   0.00603881  3.23295500  4.54670930
   4.19888207  0.81249373  4.55430731
   2.80750499  3.24459349  4.56040738
   0.00000000  1.61544000  2.28457000
  -1.39901000  4.03860000  2.28457000
   2.79802000  1.61544000  2.28457000
   1.39901000  4.03860000  2.28457000
   0.00000000  0.00000000  0.00000000
   4.19703306  2.42315000  0.00000000
   2.79802000  0.00000000  0.00000000
   1.39901000  2.42315000  0.00000000



--------------------------------------------------------------------------------------------------------


 k-point  1 :  0.00000.00000.0000  plane waves:  10713
 k-point  2 :  0.14290.00000.0000  plane waves:  10706
 k-point  3 :  0.28570.00000.0000  plane waves:  10702
 k-point  4 :  0.42860.00000.0000  plane waves:  10726
 k-point  5 :  0.00000.14290.0000  plane waves:  10706
 k-point  6 :  0.14290.14290.0000  plane waves:  10717
 k-point  7 :  0.28570.14290.0000  plane waves:  10715
 k-point  8 :  0.42860.14290.0000  plane waves:  10702
 k-point  9 :  -.42860.14290.0000  plane waves:  10715
 k-point 10 :  -.28570.14290.0000  plane waves:  10717
 k-point 11 :  -.14290.14290.0000  plane waves:  10706
 k-point 12 :  0.00000.28570.0000  plane waves:  10702
 k-point 13 :  0.14290.28570.0000  plane waves:  10715
 k-point 14 :  0.28570.28570.0000  plane waves:  10683
 k-point 15 :  0.42860.28570.0000  plane waves:  10683
 k-point 16 :  -.42860.28570.0000  plane waves:  10715
 k-point 17 :  -.28570.28570.0000  plane waves:  10702
 k-point 18 :  -.14290.28570.0000  plane waves:  10717
 k-point 19 :  0.00000.42860.0000  plane waves:  10726
 k-point 20 :  0.14290.42860.0000  plane waves:  10702
 k-point 21 :  0.28570.42860.0000  plane waves:  10683
 k-point 22 :  0.42860.42860.0000  plane waves:  10702
 k-point 23 :  -.42860.42860.0000  plane waves:  10726
 k-point 24 :  -.28570.42860.0000  plane waves:  10715
 k-point 25 :  -.14290.42860.0000  plane waves:  10715

 maximum and minimum number of plane-waves per node :  10726 10683

 maximum number of plane-waves:  10726
 maximal index in each direction: 
   IXMAX=  9   IYMAX=  9   IZMAX= 34
   IXMIN= -9   IYMIN= -9   IZMIN=-34

 NGX is ok and might be reduce to  38
 NGY is ok and might be reduce to  38
 NGZ is ok and might be reduce to 138

 real space projection operators:
  total allocation   :   8662.61 KBytes
  max/ min on nodes  :   8662.61   8662.61


 parallel 3dFFT wavefunction:
    minimum data exchange during FFTs selected (reduces bandwidth)
 parallel 3dFFT charge:
    minimum data exchange during FFTs selected (reduces bandwidth)

 For storing wavefunctions  445.47 MBYTES are necessary
 For predicting wavefunctions   38.42 MBYTES are necessary
Broyden mixing: mesh for mixing (old mesh)
   NGX = 19   NGY = 19   NGZ = 69
  (NGX  = 60   NGY  = 60   NGZ  =224)
 gives a total of  24909 points
 initial charge density was supplied:
 charge density of overlapping atoms calculated
 number of electron  168.0000000 magnetization 
 keeping initial charge density in first step


--------------------------------------------------------------------------------------------------------


 Maximum index for non-local projection operator          3903
 Maximum index for augmentation-charges          1296 (set IRDMAX)


--------------------------------------------------------------------------------------------------------


 First call to EWALD:  gamma=   0.215
 Maximum number of real-space cells 4x 4x 1
 Maximum number of reciprocal cells 2x 2x 6

    FEWALD:  VPU time    0.01: CPU time    0.01


----------------------------------------- Iteration    1(   1)  ---------------------------------------


    POTLOK:  VPU time    0.41: CPU time    0.46
    SETDIJ:  VPU time    0.02: CPU time    0.02
    EDDAV :  VPU time  200.09: CPU time  203.16
    DOS   :  VPU time    0.00: CPU time    0.00
    ------------------------------------------
      LOOP:  VPU time  200.56: CPU time  203.67

 eigenvalue-minimisations  :  5264
 total energy-change (2. order) : 0.1394786E+04  (-0.6714570E+04)
 number of electron  168.0000000 magnetization 
 augmentation part   168.0000000 magnetization 

 Free energy of the ion-electron system (eV)
  ---------------------------------------------------
  alpha Z        PSCENC =       663.00288749
  Ewald energy   TEWEN  =     33299.83614435
  -1/2 Hartree   DENC   =    -47414.30757204
  -V(xc)+E(xc)   XCENC  =      -447.54348334
  PAW double counting   =     11087.68738061   -10091.69246062
  entropy T*S    EENTRO =        -0.00043901
  eigenvalues    EBANDS =       867.52960386
  atomic energy  EATOM  =     13430.27433397
  ---------------------------------------------------
  free energy    TOTEN  =      1394.78639527 eV

  energy without entropy =     1394.78683428  energy(sigma->0) =     1394.78661477


--------------------------------------------------------------------------------------------------------




----------------------------------------- Iteration    1(   2)  ---------------------------------------


    EDDAV :  VPU time  204.36: CPU time  206.60
    DOS   :  VPU time    0.00: CPU time    0.00
    ------------------------------------------
      LOOP:  VPU time  204.38: CPU time  206.62

 eigenvalue-minimisations  :  5384
 total energy-change (2. order) :-0.1387103E+04  (-0.1306529E+04)
 number of electron  168.0000000 magnetization 
 augmentation part   168.0000000 magnetization 

 Free energy of the ion-electron system (eV)
  ---------------------------------------------------
  alpha Z        PSCENC =       663.00288749
  Ewald energy   TEWEN  =     33299.83614435
  -1/2 Hartree   DENC   =    -47414.30757204
  -V(xc)+E(xc)   XCENC  =      -447.54348334
  PAW double counting   =     11087.68738061   -10091.69246062
  entropy T*S    EENTRO =        -0.00047892
  eigenvalues    EBANDS =      -519.57313363
  atomic energy  EATOM  =     13430.27433397
  ---------------------------------------------------
  free energy    TOTEN  =         7.68361787 eV

  energy without entropy =        7.68409679  energy(sigma->0) =        7.68385733


--------------------------------------------------------------------------------------------------------




----------------------------------------- Iteration    1(   3)  ---------------------------------------


    EDDAV :  VPU time  230.63: CPU time  231.44
    DOS   :  VPU time    0.00: CPU time    0.00
    ------------------------------------------
      LOOP:  VPU time  230.65: CPU time  231.46

 eigenvalue-minimisations  :  6232
 total energy-change (2. order) :-0.1016448E+03  (-0.9340385E+02)
 number of electron  168.0000000 magnetization 
 augmentation part   168.0000000 magnetization 

 Free energy of the ion-electron system (eV)
  ---------------------------------------------------
  alpha Z        PSCENC =       663.00288749
  Ewald energy   TEWEN  =     33299.83614435
  -1/2 Hartree   DENC   =    -47414.30757204
  -V(xc)+E(xc)   XCENC  =      -447.54348334
  PAW double counting   =     11087.68738061   -10091.69246062
  entropy T*S    EENTRO =        -0.00119454
  eigenvalues    EBANDS =      -621.21723468
  atomic energy  EATOM  =     13430.27433397
  ---------------------------------------------------
  free energy    TOTEN  =       -93.96119881 eV

  energy without entropy =      -93.96000426  energy(sigma->0) =      -93.96060154


--------------------------------------------------------------------------------------------------------




----------------------------------------- Iteration    1(   4)  ---------------------------------------


    EDDAV :  VPU time  210.82: CPU time  213.43
    DOS   :  VPU time    0.00: CPU time    0.00
    ------------------------------------------
      LOOP:  VPU time  210.83: CPU time  213.45

 eigenvalue-minimisations  :  5616
 total energy-change (2. order) :-0.3910998E+01  (-0.3835278E+01)
 number of electron  168.0000000 magnetization 
 augmentation part   168.0000000 magnetization 

 Free energy of the ion-electron system (eV)
  ---------------------------------------------------
  alpha Z        PSCENC =       663.00288749
  Ewald energy   TEWEN  =     33299.83614435
  -1/2 Hartree   DENC   =    -47414.30757204
  -V(xc)+E(xc)   XCENC  =      -447.54348334
  PAW double counting   =     11087.68738061   -10091.69246062
  entropy T*S    EENTRO =        -0.00165191
  eigenvalues    EBANDS =      -625.12777536
  atomic energy  EATOM  =     13430.27433397
  ---------------------------------------------------
  free energy    TOTEN  =       -97.87219685 eV

  energy without entropy =      -97.87054494  energy(sigma->0) =      -97.87137089


--------------------------------------------------------------------------------------------------------




----------------------------------------- Iteration    1(   5)  ---------------------------------------


    EDDAV :  VPU time  230.87: CPU time  234.08
    DOS   :  VPU time    0.00: CPU time    0.00
    CHARGE:  VPU time   14.45: CPU time   14.53
    MIXING:  VPU time    0.01: CPU time    0.01
    ------------------------------------------
      LOOP:  VPU time  245.35: CPU time  248.64

 eigenvalue-minimisations  :  6328
 total energy-change (2. order) :-0.1138757E+00  (-0.1138101E+00)
 number of electron  167.9999914 magnetization 
 augmentation part    65.6079851 magnetization 

 Broyden mixing:
  rms(total) = 0.14960E+01    rms(broyden)= 0.14953E+01
  rms(prec ) = 0.16448E+01
  weight for this iteration     100.00

 Free energy of the ion-electron system (eV)
  ---------------------------------------------------
  alpha Z        PSCENC =       663.00288749
  Ewald energy   TEWEN  =     33299.83614435
  -1/2 Hartree   DENC   =    -47414.30757204
  -V(xc)+E(xc)   XCENC  =      -447.54348334
  PAW double counting   =     11087.68738061   -10091.69246062
  entropy T*S    EENTRO =        -0.00171168
  eigenvalues    EBANDS =      -625.24159130
  atomic energy  EATOM  =     13430.27433397
  ---------------------------------------------------
  free energy    TOTEN  =       -97.98607256 eV

  energy without entropy =      -97.98436088  energy(sigma->0) =      -97.98521672


--------------------------------------------------------------------------------------------------------




----------------------------------------- Iteration    1(   6)  ---------------------------------------


    POTLOK:  VPU time    0.41: CPU time    0.44
    SETDIJ:  VPU time    0.02: CPU time    0.02
    EDDAV :  VPU time  243.12: CPU time  245.93
    DOS   :  VPU time    0.00: CPU time    0.00
    CHARGE:  VPU time   14.70: CPU time   14.71
    MIXING:  VPU time    0.01: CPU time    0.01
    ------------------------------------------
      LOOP:  VPU time  258.29: CPU time  261.12

 eigenvalue-minimisations  :  6728
 total energy-change (2. order) : 0.4261226E+01  (-0.2317897E+01)
 number of electron  167.9999920 magnetization 
 augmentation part    68.9697884 magnetization 

 Broyden mixing:
  rms(total) = 0.11171E+01    rms(broyden)= 0.11156E+01
  rms(prec ) = 0.13008E+01
  weight for this iteration     100.00

 eigenvalues of (default mixing * dielectric matrix)
  average eigenvalue GAMMA=   0.5979
  0.5979

 Free energy of the ion-electron system (eV)
  ---------------------------------------------------
  alpha Z        PSCENC =       663.00288749
  Ewald energy   TEWEN  =     33299.83614435
  -1/2 Hartree   DENC   =    -47334.34071065
  -V(xc)+E(xc)   XCENC  =      -449.54147294
  PAW double counting   =     11066.30782122   -10083.84903864
  entropy T*S    EENTRO =        -0.00328773
  eigenvalues    EBANDS =      -685.41152337
  atomic energy  EATOM  =     13430.27433397
  ---------------------------------------------------
  free energy    TOTEN  =       -93.72484629 eV

  energy without entropy =      -93.72155856  energy(sigma->0) =      -93.72320243


--------------------------------------------------------------------------------------------------------




----------------------------------------- Iteration    1(   7)  ---------------------------------------


    POTLOK:  VPU time    0.43: CPU time    0.44
    SETDIJ:  VPU time    0.02: CPU time    0.02
    EDDAV :  VPU time  263.04: CPU time  264.94
    DOS   :  VPU time    0.00: CPU time    0.00
    CHARGE:  VPU time   14.57: CPU time   14.63
    MIXING:  VPU time    0.01: CPU time    0.01
    ------------------------------------------
      LOOP:  VPU time  278.09: CPU time  280.07

 eigenvalue-minimisations  :  7360
 total energy-change (2. order) : 0.2244716E+00  (-0.1975973E+01)
 number of electron  167.9999908 magnetization 
 augmentation part    68.1590251 magnetization 

 Broyden mixing:
  rms(total) = 0.82725E+00    rms(broyden)= 0.82605E+00
  rms(prec ) = 0.13409E+01
  weight for this iteration     100.00

 eigenvalues of (default mixing * dielectric matrix)
  average eigenvalue GAMMA=   0.5493
  0.7600  0.3386

 Free energy of the ion-electron system (eV)
  ---------------------------------------------------
  alpha Z        PSCENC =       663.00288749
  Ewald energy   TEWEN  =     33299.83614435
  -1/2 Hartree   DENC   =    -47379.14242660
  -V(xc)+E(xc)   XCENC  =      -450.11239125
  PAW double counting   =     11162.61499430   -10181.73049013
  entropy T*S    EENTRO =        -0.00239904
  eigenvalues    EBANDS =      -638.24102782
  atomic energy  EATOM  =     13430.27433397
  ---------------------------------------------------
  free energy    TOTEN  =       -93.50037474 eV

  energy without entropy =      -93.49797570  energy(sigma->0) =      -93.49917522


--------------------------------------------------------------------------------------------------------




----------------------------------------- Iteration    1(   8)  ---------------------------------------


    POTLOK:  VPU time    0.41: CPU time    0.43
    SETDIJ:  VPU time    0.02: CPU time    0.02
    EDDAV :  VPU time  289.36: CPU time  293.22
    DOS   :  VPU time    0.00: CPU time    0.00
    CHARGE:  VPU time   14.65: CPU time   14.65
    MIXING:  VPU time    0.01: CPU time    0.01
    ------------------------------------------
      LOOP:  VPU time  304.47: CPU time  308.36

 eigenvalue-minimisations  :  8336
 total energy-change (2. order) :-0.2152030E+01  (-0.1773224E+01)
 number of electron  167.9999908 magnetization 
 augmentation part    68.1156387 magnetization 

 Broyden mixing:
  rms(total) = 0.13817E+01    rms(broyden)= 0.13814E+01
  rms(prec ) = 0.23386E+01
  weight for this iteration     100.00

 eigenvalues of (default mixing * dielectric matrix)
  average eigenvalue GAMMA=   0.5024
  1.0154  0.3895  0.1024

 Free energy of the ion-electron system (eV)
  ---------------------------------------------------
  alpha Z        PSCENC =       663.00288749
  Ewald energy   TEWEN  =     33299.83614435
  -1/2 Hartree   DENC   =    -47388.41368032
  -V(xc)+E(xc)   XCENC  =      -450.07867142
  PAW double counting   =     11194.03476820   -10214.42543848
  entropy T*S    EENTRO =        -0.00127880
  eigenvalues    EBANDS =      -629.88146933
  atomic energy  EATOM  =     13430.27433397
  ---------------------------------------------------
  free energy    TOTEN  =       -95.65240434 eV

  energy without entropy =      -95.65112554  energy(sigma->0) =      -95.65176494


--------------------------------------------------------------------------------------------------------




----------------------------------------- Iteration    1(   9)  ---------------------------------------


    POTLOK:  VPU time    0.41: CPU time    0.44
    SETDIJ:  VPU time    0.02: CPU time    0.02
    EDDAV :  VPU time  301.85: CPU time  304.98
    DOS   :  VPU time    0.00: CPU time    0.00
    CHARGE:  VPU time   14.44: CPU time   14.63
    MIXING:  VPU time    0.01: CPU time    0.01
    ------------------------------------------
      LOOP:  VPU time  316.75: CPU time  320.09

 eigenvalue-minimisations  :  8736
 total energy-change (2. order) : 0.2347994E+01  (-0.8037591E+00)
 number of electron  167.9999914 magnetization 
 augmentation part    68.2524551 magnetization 

 Broyden mixing:
  rms(total) = 0.80864E+00    rms(broyden)= 0.80841E+00
  rms(prec ) = 0.10503E+01
  weight for this iteration     100.00

 eigenvalues of (default mixing * dielectric matrix)
  average eigenvalue GAMMA=   0.4760
  1.2052  0.4113  0.1912  0.0962

 Free energy of the ion-electron system (eV)
  ---------------------------------------------------
  alpha Z        PSCENC =       663.00288749
  Ewald energy   TEWEN  =     33299.83614435
  -1/2 Hartree   DENC   =    -47395.77526301
  -V(xc)+E(xc)   XCENC  =      -450.00280913
  PAW double counting   =     11245.81123114   -10268.41147869
  entropy T*S    EENTRO =        -0.00092174
  eigenvalues    EBANDS =      -618.03853423
  atomic energy  EATOM  =     13430.27433397
  ---------------------------------------------------
  free energy    TOTEN  =       -93.30440985 eV

  energy without entropy =      -93.30348811  energy(sigma->0) =      -93.30394898


--------------------------------------------------------------------------------------------------------




----------------------------------------- Iteration    1(  10)  ---------------------------------------


    POTLOK:  VPU time    0.41: CPU time    0.44
    SETDIJ:  VPU time    0.02: CPU time    0.02
    EDDAV :  VPU time  276.97: CPU time  280.99
    DOS   :  VPU time    0.00: CPU time    0.00
    CHARGE:  VPU time   14.51: CPU time   14.76
    MIXING:  VPU time    0.01: CPU time    0.01
    ------------------------------------------
      LOOP:  VPU time  291.94: CPU time  296.25

 eigenvalue-minimisations  :  7936
 total energy-change (2. order) : 0.7456151E+00  (-0.2396350E+00)
 number of electron  167.9999913 magnetization 
 augmentation part    68.4404147 magnetization 

 Broyden mixing:
  rms(total) = 0.39347E+00    rms(broyden)= 0.39324E+00
  rms(prec ) = 0.49116E+00
  weight for this iteration     100.00

 eigenvalues of (default mixing * dielectric matrix)
  average eigenvalue GAMMA=   0.4354
  1.2417  0.3781  0.2983  0.1671  0.0919

 Free energy of the ion-electron system (eV)
  ---------------------------------------------------
  alpha Z        PSCENC =       663.00288749
  Ewald energy   TEWEN  =     33299.83614435
  -1/2 Hartree   DENC   =    -47385.54755016
  -V(xc)+E(xc)   XCENC  =      -449.91848071
  PAW double counting   =     11272.96271362   -10296.64870835
  entropy T*S    EENTRO =        -0.00163746
  eigenvalues    EBANDS =      -626.51849749
  atomic energy  EATOM  =     13430.27433397
  ---------------------------------------------------
  free energy    TOTEN  =       -92.55879474 eV

  energy without entropy =      -92.55715728  energy(sigma->0) =      -92.55797601


--------------------------------------------------------------------------------------------------------




----------------------------------------- Iteration    1(  11)  ---------------------------------------


    POTLOK:  VPU time    0.42: CPU time    0.44
    SETDIJ:  VPU time    0.02: CPU time    0.02
    EDDAV :  VPU time  262.27: CPU time  265.81
    DOS   :  VPU time    0.00: CPU time    0.00
    CHARGE:  VPU time   14.22: CPU time   14.69
    MIXING:  VPU time    0.01: CPU time    0.01
    ------------------------------------------
      LOOP:  VPU time  276.96: CPU time  281.00

 eigenvalue-minimisations  :  7424
 total energy-change (2. order) : 0.1054688E+00  (-0.5564320E-01)
 number of electron  167.9999915 magnetization 
 augmentation part    68.3871609 magnetization 

 Broyden mixing:
  rms(total) = 0.21404E+00    rms(broyden)= 0.21391E+00
  rms(prec ) = 0.28056E+00
  weight for this iteration     100.00

 eigenvalues of (default mixing * dielectric matrix)
  average eigenvalue GAMMA=   0.5182
  1.4891  0.7023  0.4119  0.2589  0.1537  0.0934

 Free energy of the ion-electron system (eV)
  ---------------------------------------------------
  alpha Z        PSCENC =       663.00288749
  Ewald energy   TEWEN  =     33299.83614435
  -1/2 Hartree   DENC   =    -47392.29093786
  -V(xc)+E(xc)   XCENC  =      -449.88562485
  PAW double counting   =     11292.83621637   -10317.05144643
  entropy T*S    EENTRO =        -0.00194088
  eigenvalues    EBANDS =      -619.17295810
  atomic energy  EATOM  =     13430.27433397
  ---------------------------------------------------
  free energy    TOTEN  =       -92.45332594 eV

  energy without entropy =      -92.45138505  energy(sigma->0) =      -92.45235550


--------------------------------------------------------------------------------------------------------




----------------------------------------- Iteration    1(  12)  ---------------------------------------


    POTLOK:  VPU time    0.42: CPU time    0.45
    SETDIJ:  VPU time    0.02: CPU time    0.02
    EDDAV :  VPU time  265.59: CPU time  269.92
    DOS   :  VPU time    0.00: CPU time    0.00
    CHARGE:  VPU time   14.56: CPU time   14.70
    MIXING:  VPU time    0.01: CPU time    0.01
    ------------------------------------------
      LOOP:  VPU time  280.62: CPU time  285.12

 eigenvalue-minimisations  :  7560
 total energy-change (2. order) :-0.1413041E-02  (-0.4791639E-01)
 number of electron  167.9999912 magnetization 
 augmentation part    68.4387738 magnetization 

 Broyden mixing:
  rms(total) = 0.24259E+00    rms(broyden)= 0.24250E+00
  rms(prec ) = 0.30236E+00
  weight for this iteration     100.00

 eigenvalues of (default mixing * dielectric matrix)
  average eigenvalue GAMMA=   0.6021
  2.1137  0.9572  0.3602  0.3602  0.2002  0.0933  0.1299

 Free energy of the ion-electron system (eV)
  ---------------------------------------------------
  alpha Z        PSCENC =       663.00288749
  Ewald energy   TEWEN  =     33299.83614435
  -1/2 Hartree   DENC   =    -47393.30792365
  -V(xc)+E(xc)   XCENC  =      -449.80608224
  PAW double counting   =     11328.40670114   -10353.59802578
  entropy T*S    EENTRO =        -0.00169735
  eigenvalues    EBANDS =      -617.26107691
  atomic energy  EATOM  =     13430.27433397
  ---------------------------------------------------
  free energy    TOTEN  =       -92.45473898 eV

  energy without entropy =      -92.45304163  energy(sigma->0) =      -92.45389031


--------------------------------------------------------------------------------------------------------




----------------------------------------- Iteration    1(  13)  ---------------------------------------


    POTLOK:  VPU time    0.44: CPU time    0.44
    SETDIJ:  VPU time    0.02: CPU time    0.02
    EDDAV :  VPU time  273.00: CPU time  275.41
    DOS   :  VPU time    0.00: CPU time    0.00
    CHARGE:  VPU time   14.56: CPU time   14.64
    MIXING:  VPU time    0.01: CPU time    0.01
    ------------------------------------------
      LOOP:  VPU time  288.05: CPU time  290.56

 eigenvalue-minimisations  :  7752
 total energy-change (2. order) : 0.3229514E-01  (-0.2055965E-01)
 number of electron  167.9999914 magnetization 
 augmentation part    68.4669784 magnetization 

 Broyden mixing:
  rms(total) = 0.18711E+00    rms(broyden)= 0.18702E+00
  rms(prec ) = 0.24049E+00
  weight for this iteration     100.00

 eigenvalues of (default mixing * dielectric matrix)
  average eigenvalue GAMMA=   0.6552
  2.5371  0.9883  0.5102  0.5102  0.2610  0.2020  0.0934  0.1391

 Free energy of the ion-electron system (eV)
  ---------------------------------------------------
  alpha Z        PSCENC =       663.00288749
  Ewald energy   TEWEN  =     33299.83614435
  -1/2 Hartree   DENC   =    -47400.55619019
  -V(xc)+E(xc)   XCENC  =      -449.70733072
  PAW double counting   =     11377.73312505   -10404.33352997
  entropy T*S    EENTRO =        -0.00209498
  eigenvalues    EBANDS =      -608.66978883
  atomic energy  EATOM  =     13430.27433397
  ---------------------------------------------------
  free energy    TOTEN  =       -92.42244384 eV

  energy without entropy =      -92.42034886  energy(sigma->0) =      -92.42139635


--------------------------------------------------------------------------------------------------------




----------------------------------------- Iteration    1(  14)  ---------------------------------------


    POTLOK:  VPU time    0.43: CPU time    0.45
    SETDIJ:  VPU time    0.02: CPU time    0.02
    EDDAV :  VPU time  262.15: CPU time  265.00
    DOS   :  VPU time    0.00: CPU time    0.00
    CHARGE:  VPU time   14.44: CPU time   14.66
    MIXING:  VPU time    0.01: CPU time    0.01
    ------------------------------------------
      LOOP:  VPU time  277.07: CPU time  280.17

 eigenvalue-minimisations  :  7392
 total energy-change (2. order) : 0.1016446E-01  (-0.1582382E-01)
 number of electron  167.9999913 magnetization 
 augmentation part    68.4504363 magnetization 

 Broyden mixing:
  rms(total) = 0.15471E+00    rms(broyden)= 0.15466E+00
  rms(prec ) = 0.18953E+00
  weight for this iteration     100.00

 eigenvalues of (default mixing * dielectric matrix)
  average eigenvalue GAMMA=   0.6346
  2.5069  0.8641  0.8641  0.5208  0.2663  0.2663  0.0934  0.1920  0.1375

 Free energy of the ion-electron system (eV)
  ---------------------------------------------------
  alpha Z        PSCENC =       663.00288749
  Ewald energy   TEWEN  =     33299.83614435
  -1/2 Hartree   DENC   =    -47407.08619609
  -V(xc)+E(xc)   XCENC  =      -449.70093144
  PAW double counting   =     11401.00035942   -10428.28614703
  entropy T*S    EENTRO =        -0.00203756
  eigenvalues    EBANDS =      -601.45069248
  atomic energy  EATOM  =     13430.27433397
  ---------------------------------------------------
  free energy    TOTEN  =       -92.41227938 eV

  energy without entropy =      -92.41024182  energy(sigma->0) =      -92.41126060


--------------------------------------------------------------------------------------------------------




----------------------------------------- Iteration    1(  15)  ---------------------------------------


    POTLOK:  VPU time    0.44: CPU time    0.45
    SETDIJ:  VPU time    0.02: CPU time    0.02
    EDDAV :  VPU time  271.13: CPU time  274.60
    DOS   :  VPU time    0.00: CPU time    0.00
    CHARGE:  VPU time   14.63: CPU time   14.65
    MIXING:  VPU time    0.01: CPU time    0.01
    ------------------------------------------
      LOOP:  VPU time  286.25: CPU time  289.76

 eigenvalue-minimisations  :  7696
 total energy-change (2. order) : 0.2749001E-01  (-0.1033217E-01)
 number of electron  167.9999914 magnetization 
 augmentation part    68.4270712 magnetization 

 Broyden mixing:
  rms(total) = 0.76162E-01    rms(broyden)= 0.76095E-01
  rms(prec ) = 0.11361E+00
  weight for this iteration     100.00

 eigenvalues of (default mixing * dielectric matrix)
  average eigenvalue GAMMA=   0.6281
  2.4373  0.9729  0.9729  0.5414  0.3514  0.3514  0.0934  0.2290  0.1934  0.1377

 Free energy of the ion-electron system (eV)
  ---------------------------------------------------
  alpha Z        PSCENC =       663.00288749
  Ewald energy   TEWEN  =     33299.83614435
  -1/2 Hartree   DENC   =    -47410.91506567
  -V(xc)+E(xc)   XCENC  =      -449.73242398
  PAW double counting   =     11403.04663084   -10430.38735612
  entropy T*S    EENTRO =        -0.00237651
  eigenvalues    EBANDS =      -597.50756373
  atomic energy  EATOM  =     13430.27433397
  ---------------------------------------------------
  free energy    TOTEN  =       -92.38478937 eV

  energy without entropy =      -92.38241286  energy(sigma->0) =      -92.38360111


--------------------------------------------------------------------------------------------------------




----------------------------------------- Iteration    1(  16)  ---------------------------------------


    POTLOK:  VPU time    0.44: CPU time    0.45
    SETDIJ:  VPU time    0.02: CPU time    0.03
    EDDAV :  VPU time  260.59: CPU time  263.93
    DOS   :  VPU time    0.00: CPU time    0.00
    CHARGE:  VPU time   14.66: CPU time   14.67
    MIXING:  VPU time    0.01: CPU time    0.01
    ------------------------------------------
      LOOP:  VPU time  275.74: CPU time  279.10

 eigenvalue-minimisations  :  7368
 total energy-change (2. order) : 0.2883492E-02  (-0.3035385E-02)
 number of electron  167.9999914 magnetization 
 augmentation part    68.4187051 magnetization 

 Broyden mixing:
  rms(total) = 0.48141E-01    rms(broyden)= 0.48107E-01
  rms(prec ) = 0.73027E-01
  weight for this iteration     100.00

 eigenvalues of (default mixing * dielectric matrix)
  average eigenvalue GAMMA=   0.6326
  2.3697  1.1290  1.1290  0.6150  0.4877  0.3207  0.0934  0.2686  0.2186  0.1892
  0.1377

 Free energy of the ion-electron system (eV)
  ---------------------------------------------------
  alpha Z        PSCENC =       663.00288749
  Ewald energy   TEWEN  =     33299.83614435
  -1/2 Hartree   DENC   =    -47413.11350505
  -V(xc)+E(xc)   XCENC  =      -449.73828997
  PAW double counting   =     11402.79175433   -10430.07663451
  entropy T*S    EENTRO =        -0.00263143
  eigenvalues    EBANDS =      -595.35596507
  atomic energy  EATOM  =     13430.27433397
  ---------------------------------------------------
  free energy    TOTEN  =       -92.38190588 eV

  energy without entropy =      -92.37927445  energy(sigma->0) =      -92.38059016


--------------------------------------------------------------------------------------------------------




----------------------------------------- Iteration    1(  17)  ---------------------------------------


    POTLOK:  VPU time    0.44: CPU time    0.45
    SETDIJ:  VPU time    0.02: CPU time    0.02
    EDDAV :  VPU time  259.42: CPU time  260.31
    DOS   :  VPU time    0.00: CPU time    0.00
    CHARGE:  VPU time   14.67: CPU time   14.69
    MIXING:  VPU time    0.01: CPU time    0.02
    ------------------------------------------
      LOOP:  VPU time  274.59: CPU time  275.51

 eigenvalue-minimisations  :  7240
 total energy-change (2. order) : 0.3537766E-02  (-0.1086530E-02)
 number of electron  167.9999913 magnetization 
 augmentation part    68.4110490 magnetization 

 Broyden mixing:
  rms(total) = 0.14842E-01    rms(broyden)= 0.14803E-01
  rms(prec ) = 0.19345E-01
  weight for this iteration     100.00

 eigenvalues of (default mixing * dielectric matrix)
  average eigenvalue GAMMA=   0.6496
  2.3795  1.1898  1.1898  0.6963  0.6963  0.4373  0.0934  0.3117  0.2609  0.1377
  0.1890  0.2140

 Free energy of the ion-electron system (eV)
  ---------------------------------------------------
  alpha Z        PSCENC =       663.00288749
  Ewald energy   TEWEN  =     33299.83614435
  -1/2 Hartree   DENC   =    -47415.65457673
  -V(xc)+E(xc)   XCENC  =      -449.72819070
  PAW double counting   =     11403.42910706   -10430.65760645
  entropy T*S    EENTRO =        -0.00246176
  eigenvalues    EBANDS =      -592.87800535
  atomic energy  EATOM  =     13430.27433397
  ---------------------------------------------------
  free energy    TOTEN  =       -92.37836811 eV

  energy without entropy =      -92.37590636  energy(sigma->0) =      -92.37713723


--------------------------------------------------------------------------------------------------------




----------------------------------------- Iteration    1(  18)  ---------------------------------------


    POTLOK:  VPU time    0.45: CPU time    0.45
    SETDIJ:  VPU time    0.02: CPU time    0.02
    EDDAV :  VPU time  240.37: CPU time  243.16
    DOS   :  VPU time    0.00: CPU time    0.00
    CHARGE:  VPU time   14.41: CPU time   14.68
    MIXING:  VPU time    0.02: CPU time    0.02
    ------------------------------------------
      LOOP:  VPU time  255.28: CPU time  258.35

 eigenvalue-minimisations  :  6648
 total energy-change (2. order) : 0.1630583E-02  (-0.2402594E-03)
 number of electron  167.9999913 magnetization 
 augmentation part    68.4114371 magnetization 

 Broyden mixing:
  rms(total) = 0.15110E-01    rms(broyden)= 0.15104E-01
  rms(prec ) = 0.19463E-01
  weight for this iteration     100.00

 eigenvalues of (default mixing * dielectric matrix)
  average eigenvalue GAMMA=   0.6530
  2.3347  1.5375  1.1120  0.7733  0.7733  0.4219  0.3606  0.0934  0.2715  0.2715
  0.1377  0.2122  0.1892

 Free energy of the ion-electron system (eV)
  ---------------------------------------------------
  alpha Z        PSCENC =       663.00288749
  Ewald energy   TEWEN  =     33299.83614435
  -1/2 Hartree   DENC   =    -47417.96562654
  -V(xc)+E(xc)   XCENC  =      -449.71087485
  PAW double counting   =     11403.95815463   -10431.16644591
  entropy T*S    EENTRO =        -0.00256794
  eigenvalues    EBANDS =      -590.60274272
  atomic energy  EATOM  =     13430.27433397
  ---------------------------------------------------
  free energy    TOTEN  =       -92.37673753 eV

  energy without entropy =      -92.37416959  energy(sigma->0) =      -92.37545356


--------------------------------------------------------------------------------------------------------




----------------------------------------- Iteration    1(  19)  ---------------------------------------


    POTLOK:  VPU time    0.44: CPU time    0.45
    SETDIJ:  VPU time    0.02: CPU time    0.02
    EDDAV :  VPU time  225.69: CPU time  227.10
    DOS   :  VPU time    0.00: CPU time    0.00
    CHARGE:  VPU time   14.15: CPU time   14.56
    MIXING:  VPU time    0.02: CPU time    0.02
    ------------------------------------------
      LOOP:  VPU time  240.33: CPU time  242.17

 eigenvalue-minimisations  :  6088
 total energy-change (2. order) : 0.1597456E-02  (-0.1714635E-03)
 number of electron  167.9999914 magnetization 
 augmentation part    68.4100470 magnetization 

 Broyden mixing:
  rms(total) = 0.92464E-02    rms(broyden)= 0.92391E-02
  rms(prec ) = 0.13297E-01
  weight for this iteration     100.00

 eigenvalues of (default mixing * dielectric matrix)
  average eigenvalue GAMMA=   0.7049
  2.2379  2.2379  1.0974  0.8828  0.8828  0.6178  0.4649  0.0934  0.3055  0.1377
  0.2717  0.2383  0.2117  0.1889

 Free energy of the ion-electron system (eV)
  ---------------------------------------------------
  alpha Z        PSCENC =       663.00288749
  Ewald energy   TEWEN  =     33299.83614435
  -1/2 Hartree   DENC   =    -47419.95722487
  -V(xc)+E(xc)   XCENC  =      -449.69889241
  PAW double counting   =     11403.73218124   -10430.91079689
  entropy T*S    EENTRO =        -0.00252535
  eigenvalues    EBANDS =      -588.65124761
  atomic energy  EATOM  =     13430.27433397
  ---------------------------------------------------
  free energy    TOTEN  =       -92.37514007 eV

  energy without entropy =      -92.37261472  energy(sigma->0) =      -92.37387740


--------------------------------------------------------------------------------------------------------




----------------------------------------- Iteration    1(  20)  ---------------------------------------


    POTLOK:  VPU time    0.43: CPU time    0.45
    SETDIJ:  VPU time    0.02: CPU time    0.02
    EDDAV :  VPU time  239.66: CPU time  241.46
    DOS   :  VPU time    0.00: CPU time    0.00
    CHARGE:  VPU time   14.62: CPU time   14.65
    MIXING:  VPU time    0.01: CPU time    0.02
    ------------------------------------------
      LOOP:  VPU time  254.76: CPU time  256.62

 eigenvalue-minimisations  :  6584
 total energy-change (2. order) : 0.2376167E-02  (-0.2203254E-03)
 number of electron  167.9999914 magnetization 
 augmentation part    68.4085229 magnetization 

 Broyden mixing:
  rms(total) = 0.15896E-01    rms(broyden)= 0.15892E-01
  rms(prec ) = 0.19429E-01
  weight for this iteration     100.00

 eigenvalues of (default mixing * dielectric matrix)
  average eigenvalue GAMMA=   0.7274
  2.5578  2.5578  1.0897  0.9078  0.9078  0.7540  0.4565  0.0934  0.1377  0.3049
  0.2876  0.2493  0.1892  0.2154  0.2020

 Free energy of the ion-electron system (eV)
  ---------------------------------------------------
  alpha Z        PSCENC =       663.00288749
  Ewald energy   TEWEN  =     33299.83614435
  -1/2 Hartree   DENC   =    -47423.49314275
  -V(xc)+E(xc)   XCENC  =      -449.68020832
  PAW double counting   =     11402.98077246   -10430.10974014
  entropy T*S    EENTRO =        -0.00249852
  eigenvalues    EBANDS =      -585.18131243
  atomic energy  EATOM  =     13430.27433397
  ---------------------------------------------------
  free energy    TOTEN  =       -92.37276391 eV

  energy without entropy =      -92.37026538  energy(sigma->0) =      -92.37151465


--------------------------------------------------------------------------------------------------------




----------------------------------------- Iteration    1(  21)  ---------------------------------------


    POTLOK:  VPU time    0.44: CPU time    0.46
    SETDIJ:  VPU time    0.02: CPU time    0.02
    EDDAV :  VPU time  216.64: CPU time  220.97
    DOS   :  VPU time    0.00: CPU time    0.00
    CHARGE:  VPU time   14.31: CPU time   14.57
    MIXING:  VPU time    0.02: CPU time    0.02
    ------------------------------------------
      LOOP:  VPU time  231.44: CPU time  236.06

 eigenvalue-minimisations  :  5864
 total energy-change (2. order) : 0.1548379E-02  (-0.1473859E-03)
 number of electron  167.9999914 magnetization 
 augmentation part    68.4088347 magnetization 

 Broyden mixing:
  rms(total) = 0.42264E-02    rms(broyden)= 0.42177E-02
  rms(prec ) = 0.71241E-02
  weight for this iteration     100.00

 eigenvalues of (default mixing * dielectric matrix)
  average eigenvalue GAMMA=   0.7812
  3.0426  2.5030  1.1017  1.1017  0.9067  0.9067  0.7997  0.4519  0.0934  0.3186
  0.1377  0.2693  0.2645  0.2134  0.1889  0.1992

 Free energy of the ion-electron system (eV)
  ---------------------------------------------------
  alpha Z        PSCENC =       663.00288749
  Ewald energy   TEWEN  =     33299.83614435
  -1/2 Hartree   DENC   =    -47426.05755621
  -V(xc)+E(xc)   XCENC  =      -449.66699735
  PAW double counting   =     11402.47163396   -10429.57490462
  entropy T*S    EENTRO =        -0.00252612
  eigenvalues    EBANDS =      -582.65423100
  atomic energy  EATOM  =     13430.27433397
  ---------------------------------------------------
  free energy    TOTEN  =       -92.37121553 eV

  energy without entropy =      -92.36868941  energy(sigma->0) =      -92.36995247


--------------------------------------------------------------------------------------------------------




----------------------------------------- Iteration    1(  22)  ---------------------------------------


    POTLOK:  VPU time    0.43: CPU time    0.45
    SETDIJ:  VPU time    0.02: CPU time    0.02
    EDDAV :  VPU time  173.08: CPU time  175.95
    DOS   :  VPU time    0.00: CPU time    0.00
    CHARGE:  VPU time   14.34: CPU time   14.66
    MIXING:  VPU time    0.02: CPU time    0.02
    ------------------------------------------
      LOOP:  VPU time  187.91: CPU time  191.13

 eigenvalue-minimisations  :  4320
 total energy-change (2. order) : 0.3362872E-03  (-0.4372971E-04)
 number of electron  167.9999914 magnetization 
 augmentation part    68.4092318 magnetization 

 Broyden mixing:
  rms(total) = 0.48403E-02    rms(broyden)= 0.48393E-02
  rms(prec ) = 0.63284E-02
  weight for this iteration     100.00

 eigenvalues of (default mixing * dielectric matrix)
  average eigenvalue GAMMA=   0.7721
  3.1464  2.5393  1.2056  1.2056  0.9019  0.9019  0.8054  0.4515  0.0934  0.1377
  0.3201  0.2782  0.2782  0.2584  0.2135  0.1889  0.1988

 Free energy of the ion-electron system (eV)
  ---------------------------------------------------
  alpha Z        PSCENC =       663.00288749
  Ewald energy   TEWEN  =     33299.83614435
  -1/2 Hartree   DENC   =    -47428.15520053
  -V(xc)+E(xc)   XCENC  =      -449.66010662
  PAW double counting   =     11401.62429817   -10428.72873541
  entropy T*S    EENTRO =        -0.00252086
  eigenvalues    EBANDS =      -580.56197979
  atomic energy  EATOM  =     13430.27433397
  ---------------------------------------------------
  free energy    TOTEN  =       -92.37087924 eV

  energy without entropy =      -92.36835838  energy(sigma->0) =      -92.36961881


--------------------------------------------------------------------------------------------------------




----------------------------------------- Iteration    1(  23)  ---------------------------------------


    POTLOK:  VPU time    0.44: CPU time    0.45
    SETDIJ:  VPU time    0.02: CPU time    0.02
    EDDAV :  VPU time  143.97: CPU time  145.84
    DOS   :  VPU time    0.00: CPU time    0.00
    ------------------------------------------
      LOOP:  VPU time  144.45: CPU time  146.34

 eigenvalue-minimisations  :  3288
 total energy-change (2. order) :-0.6167760E-04  (-0.1945849E-04)
 number of electron  167.9999914 magnetization 
 augmentation part    68.4092318 magnetization 

 Free energy of the ion-electron system (eV)
  ---------------------------------------------------
  alpha Z        PSCENC =       663.00288749
  Ewald energy   TEWEN  =     33299.83614435
  -1/2 Hartree   DENC   =    -47428.75787183
  -V(xc)+E(xc)   XCENC  =      -449.65847570
  PAW double counting   =     11401.31320171   -10428.41997005
  entropy T*S    EENTRO =        -0.00251910
  eigenvalues    EBANDS =      -579.95867176
  atomic energy  EATOM  =     13430.27433397
  ---------------------------------------------------
  free energy    TOTEN  =       -92.37094092 eV

  energy without entropy =      -92.36842182  energy(sigma->0) =      -92.36968137


--------------------------------------------------------------------------------------------------------




 average (electrostatic) potential at core
  the test charge radii are     0.5201  0.7215  1.1199
  (the norm of the test charge is              1.0000)
       1 -40.1161       2 -37.9954       3 -77.1141       4 -52.6720       5 -52.2113
       6 -52.2367       7 -52.0965       8 -52.4483       9 -52.4009      10 -52.4257
      11 -52.4491      12 -52.4457      13 -52.4887      14 -52.3882      15 -52.4454
      16 -52.0828      17 -52.0861      18 -52.0928      19 -52.0743



 E-fermi :  -0.9363     XC(G=0):  -7.0828     alpha+bet : -5.2630
   add alpha+bet to get absolut eigen values

 k-point   1 :       0.0000    0.0000    0.0000
  band No.  band energies     occupation 
      1     -19.8729      2.00000
      2      -7.9777      2.00000
      3      -7.1477      2.00000
      4      -6.7211      2.00000
      5      -6.0772      2.00000
      6      -5.6846      2.00000
      7      -5.6719      2.00000
      8      -5.6549      2.00000
      9      -5.6007      2.00000
     10      -5.5781      2.00000
     11      -5.5483      2.00000
     12      -5.5303      2.00000
     13      -5.4437      2.00000
     14      -5.3982      2.00000
     15      -5.3734      2.00000
     16      -5.3673      2.00000
     17      -5.2034      2.00000
     18      -5.1827      2.00000
     19      -5.0604      2.00000
     20      -5.0394      2.00000
     21      -5.0157      2.00000
     22      -4.8622      2.00000
     23      -4.6632      2.00000
     24      -4.5431      2.00000
     25      -4.4061      2.00000
     26      -4.2767      2.00000
     27      -3.7601      2.00000
     28      -3.7248      2.00000
     29      -3.6656      2.00000
     30      -3.6445      2.00000
     31      -3.6186      2.00000
     32      -3.5346      2.00000
     33      -3.5180      2.00000
     34      -3.4994      2.00000
     35      -3.4236      2.00000
     36      -3.4154      2.00000
     37      -3.3920      2.00000
     38      -3.3487      2.00000
     39      -3.3224      2.00000
     40      -3.2850      2.00000
     41      -3.2748      2.00000
     42      -3.2489      2.00000
     43      -3.2146      2.00000
     44      -3.1328      2.00000
     45      -3.1238      2.00000
     46      -2.7234      2.00000
     47      -2.6171      2.00000
     48      -2.5695      2.00000
     49      -2.5577      2.00000
     50      -2.5263      2.00000
     51      -2.5124      2.00000
     52      -2.3530      2.00000
     53      -2.1870      2.00000
     54      -2.1596      2.00000
     55      -2.0867      2.00000
     56      -2.0505      2.00000
     57      -1.9851      2.00000
     58      -1.9122      2.00000
     59      -1.8987      2.00000
     60      -1.7414      2.00000
     61      -1.7210      2.00000
     62      -1.6671      2.00000
     63      -1.4472      2.00000
     64      -1.4193      2.00000
     65      -1.3967      2.00000
     66      -1.3546      2.00000
     67      -1.2822      2.00000
     68      -1.1319      2.00000
     69      -1.1042      2.00000
     70      -1.0894      2.00000
     71      -1.0484      2.00000
     72      -1.0362      2.00000
     73      -1.0200      2.00000
     74      -1.0153      2.00000
     75      -1.0051      2.00000
     76      -0.9420      1.58015
     77      -0.9331      0.65497
     78      -0.9270      0.18696
     79      -0.8585      0.00000
     80      -0.8513      0.00000
     81      -0.8450      0.00000
     82      -0.7882      0.00000
     83      -0.7587      0.00000
     84      -0.7230      0.00000
     85      -0.6623      0.00000
     86      -0.6562      0.00000
     87      -0.6551      0.00000
     88      -0.1031      0.00000
     89       0.3629      0.00000
     90       0.8245      0.00000
     91       1.0199      0.00000
     92       1.0546      0.00000
     93       1.7840      0.00000
     94       2.2021      0.00000
     95       2.2484      0.00000
     96       2.6022      0.00000
     97       2.7773      0.00000
     98       2.7942      0.00000
     99       2.7966      0.00000
    100       2.8349      0.00000
    101       2.8392      0.00000
    102       3.6727      0.00000
    103       4.1107      0.00000
    104       4.9583      0.00000

 k-point   2 :       0.1429    0.0000    0.0000
  band No.  band energies     occupation 
      1     -19.8727      2.00000
      2      -7.9288      2.00000
      3      -7.0202      2.00000
      4      -6.6678      2.00000
      5      -5.9421      2.00000
      6      -5.5971      2.00000
      7      -5.5740      2.00000
      8      -5.5578      2.00000
      9      -5.5086      2.00000
     10      -5.4927      2.00000
     11      -5.4715      2.00000
     12      -5.4379      2.00000
     13      -5.3649      2.00000
     14      -5.3228      2.00000
     15      -5.3072      2.00000
     16      -5.2727      2.00000
     17      -5.1247      2.00000
     18      -5.0894      2.00000
     19      -4.9726      2.00000
     20      -4.9368      2.00000
     21      -4.9296      2.00000
     22      -4.7913      2.00000
     23      -4.6301      2.00000
     24      -4.4985      2.00000
     25      -4.3871      2.00000
     26      -4.2578      2.00000
     27      -3.7974      2.00000
     28      -3.7717      2.00000
     29      -3.6616      2.00000
     30      -3.6314      2.00000
     31      -3.5982      2.00000
     32      -3.5813      2.00000
     33      -3.5667      2.00000
     34      -3.5312      2.00000
     35      -3.4516      2.00000
     36      -3.4062      2.00000
     37      -3.3542      2.00000
     38      -3.3270      2.00000
     39      -3.2935      2.00000
     40      -3.2606      2.00000
     41      -3.2401      2.00000
     42      -3.2010      2.00000
     43      -3.1787      2.00000
     44      -3.1428      2.00000
     45      -3.0399      2.00000
     46      -2.8339      2.00000
     47      -2.7245      2.00000
     48      -2.7169      2.00000
     49      -2.6736      2.00000
     50      -2.6473      2.00000
     51      -2.5568      2.00000
     52      -2.4399      2.00000
     53      -2.2904      2.00000
     54      -2.2154      2.00000
     55      -2.1497      2.00000
     56      -2.1432      2.00000
     57      -2.1126      2.00000
     58      -1.9860      2.00000
     59      -1.8611      2.00000
     60      -1.7847      2.00000
     61      -1.7424      2.00000
     62      -1.7016      2.00000
     63      -1.5949      2.00000
     64      -1.5592      2.00000
     65      -1.5026      2.00000
     66      -1.4535      2.00000
     67      -1.3920      2.00000
     68      -1.3427      2.00000
     69      -1.3054      2.00000
     70      -1.2166      2.00000
     71      -1.1814      2.00000
     72      -1.1626      2.00000
     73      -1.1414      2.00000
     74      -1.1117      2.00000
     75      -1.0868      2.00000
     76      -1.0692      2.00000
     77      -1.0206      2.00000
     78      -0.9986      2.00000
     79      -0.9811      2.00000
     80      -0.9581      1.99796
     81      -0.9339      0.73749
     82      -0.9091      0.00012
     83      -0.8683      0.00000
     84      -0.8528      0.00000
     85      -0.7800      0.00000
     86      -0.7642      0.00000
     87      -0.7185      0.00000
     88      -0.0249      0.00000
     89       0.1559      0.00000
     90       0.7040      0.00000
     91       1.0567      0.00000
     92       1.1622      0.00000
     93       1.1940      0.00000
     94       1.7881      0.00000
     95       1.9989      0.00000
     96       2.0970      0.00000
     97       2.6090      0.00000
     98       2.7990      0.00000
     99       3.5687      0.00000
    100       3.7448      0.00000
    101       3.8368      0.00000
    102       3.9599      0.00000
    103       4.2398      0.00000
    104       5.1856      0.00000

 k-point   3 :       0.2857    0.0000    0.0000
  band No.  band energies     occupation 
      1     -19.8723      2.00000
      2      -7.8300      2.00000
      3      -6.7005      2.00000
      4      -6.4729      2.00000
      5      -5.5852      2.00000
      6      -5.4563      2.00000
      7      -5.4098      2.00000
      8      -5.3033      2.00000
      9      -5.2974      2.00000
     10      -5.2459      2.00000
     11      -5.1943      2.00000
     12      -5.1740      2.00000
     13      -5.1538      2.00000
     14      -5.1088      2.00000
     15      -5.0841      2.00000
     16      -5.0041      2.00000
     17      -4.9527      2.00000
     18      -4.8086      2.00000
     19      -4.7808      2.00000
     20      -4.7206      2.00000
     21      -4.6555      2.00000
     22      -4.5412      2.00000
     23      -4.5102      2.00000
     24      -4.3716      2.00000
     25      -4.3458      2.00000
     26      -4.2003      2.00000
     27      -3.9600      2.00000
     28      -3.9117      2.00000
     29      -3.8590      2.00000
     30      -3.7549      2.00000
     31      -3.7318      2.00000
     32      -3.6534      2.00000
     33      -3.5174      2.00000
     34      -3.4686      2.00000
     35      -3.4362      2.00000
     36      -3.3729      2.00000
     37      -3.2967      2.00000
     38      -3.2746      2.00000
     39      -3.2103      2.00000
     40      -3.1649      2.00000
     41      -3.1582      2.00000
     42      -3.1475      2.00000
     43      -3.1134      2.00000
     44      -3.0863      2.00000
     45      -3.0652      2.00000
     46      -3.0531      2.00000
[...]
      0.000000  0.000000  0.000000            0           0           0  
      4.197033  2.423150  0.000000            0           0           0  
      2.798020  0.000000  0.000000            0           0           0  
      1.399010  2.423150  0.000000            0           0           0  

   8 f  =    3.050122 THz    19.164485 2PiTHz  101.741131 cm-1    12.614297 meV
             X         Y         Z           dx          dy          dz
      1.920325  4.354072  9.214884     0.174819    0.222816    0.110185  
      3.932470  0.967172  7.897336     0.001687    0.000539   -0.002362  
      5.147965  0.327653  8.890411     0.457831    0.835286   -0.018152  
     -2.737057  4.829452  6.911509            0           0           0  
     -1.372451  2.418984  6.864455            0           0           0  
      2.834201  0.005010  6.864793            0           0           0  
      1.430521  2.421695  6.794435            0           0           0  
      1.392312  0.795749  4.567612            0           0           0  
      0.006039  3.232955  4.546709            0           0           0  
      4.198882  0.812494  4.554307            0           0           0  
      2.807505  3.244593  4.560407            0           0           0  
      0.000000  1.615440  2.284570            0           0           0  
     -1.399010  4.038600  2.284570            0           0           0  
      2.798020  1.615440  2.284570            0           0           0  
      1.399010  4.038600  2.284570            0           0           0  
      0.000000  0.000000  0.000000            0           0           0  
      4.197033  2.423150  0.000000            0           0           0  
      2.798020  0.000000  0.000000            0           0           0  
      1.399010  2.423150  0.000000            0           0           0  

   9 f/i=   15.663781 THz    98.418437 2PiTHz  522.487471 cm-1    64.780214 meV
             X         Y         Z           dx          dy          dz
      1.920325  4.354072  9.214884    -0.068289    0.034926    0.020143  
      3.932470  0.967172  7.897336     0.681133   -0.437562    0.370993  
      5.147965  0.327653  8.890411    -0.382282    0.213847    0.093821  
     -2.737057  4.829452  6.911509            0           0           0  
     -1.372451  2.418984  6.864455            0           0           0  
      2.834201  0.005010  6.864793            0           0           0  
      1.430521  2.421695  6.794435            0           0           0  
      1.392312  0.795749  4.567612            0           0           0  
      0.006039  3.232955  4.546709            0           0           0  
      4.198882  0.812494  4.554307            0           0           0  
      2.807505  3.244593  4.560407            0           0           0  
      0.000000  1.615440  2.284570            0           0           0  
     -1.399010  4.038600  2.284570            0           0           0  
      2.798020  1.615440  2.284570            0           0           0  
      1.399010  4.038600  2.284570            0           0           0  
      0.000000  0.000000  0.000000            0           0           0  
      4.197033  2.423150  0.000000            0           0           0  
      2.798020  0.000000  0.000000            0           0           0  
      1.399010  2.423150  0.000000            0           0           0  

 Eigenvectors after division by SQRT(mass)

 Eigenvectors and eigenvalues of the dynamical matrix
 ----------------------------------------------------


   1 f  =  109.456179 THz   687.733457 2PiTHz 3651.065029 cm-1   452.674533 meV
             X         Y         Z           dx          dy          dz
      1.920325  4.354072  9.214884    -0.424619   -0.807513    0.330660  
      3.932470  0.967172  7.897336    -0.001535    0.000370   -0.002552  
      5.147965  0.327653  8.890411     0.026508    0.050189   -0.020511  
     -2.737057  4.829452  6.911509            0           0           0  
     -1.372451  2.418984  6.864455            0           0           0  
      2.834201  0.005010  6.864793            0           0           0  
      1.430521  2.421695  6.794435            0           0           0  
      1.392312  0.795749  4.567612            0           0           0  
      0.006039  3.232955  4.546709            0           0           0  
      4.198882  0.812494  4.554307            0           0           0  
      2.807505  3.244593  4.560407            0           0           0  
      0.000000  1.615440  2.284570            0           0           0  
     -1.399010  4.038600  2.284570            0           0           0  
      2.798020  1.615440  2.284570            0           0           0  
      1.399010  4.038600  2.284570            0           0           0  
      0.000000  0.000000  0.000000            0           0           0  
      4.197033  2.423150  0.000000            0           0           0  
      2.798020  0.000000  0.000000            0           0           0  
      1.399010  2.423150  0.000000            0           0           0  

   2 f  =   24.223341 THz   152.199742 2PiTHz  808.003666 cm-1   100.179723 meV
             X         Y         Z           dx          dy          dz
      1.920325  4.354072  9.214884    -0.013799   -0.013506   -0.051147  
      3.932470  0.967172  7.897336    -0.252278    0.230453    0.924185  
      5.147965  0.327653  8.890411     0.036987   -0.016176    0.002025  
     -2.737057  4.829452  6.911509            0           0           0  
     -1.372451  2.418984  6.864455            0           0           0  
      2.834201  0.005010  6.864793            0           0           0  
      1.430521  2.421695  6.794435            0           0           0  
      1.392312  0.795749  4.567612            0           0           0  
      0.006039  3.232955  4.546709            0           0           0  
      4.198882  0.812494  4.554307            0           0           0  
      2.807505  3.244593  4.560407            0           0           0  
      0.000000  1.615440  2.284570            0           0           0  
     -1.399010  4.038600  2.284570            0           0           0  
      2.798020  1.615440  2.284570            0           0           0  
      1.399010  4.038600  2.284570            0           0           0  
      0.000000  0.000000  0.000000            0           0           0  
      4.197033  2.423150  0.000000            0           0           0  
      2.798020  0.000000  0.000000            0           0           0  
      1.399010  2.423150  0.000000            0           0           0  

   3 f  =   22.226427 THz   139.652761 2PiTHz  741.393787 cm-1    91.921147 meV
             X         Y         Z           dx          dy          dz
      1.920325  4.354072  9.214884    -0.134326   -0.204049   -0.746593  
      3.932470  0.967172  7.897336    -0.312106   -0.486821   -0.012818  
      5.147965  0.327653  8.890411     0.018106    0.036365    0.037035  
     -2.737057  4.829452  6.911509            0           0           0  
     -1.372451  2.418984  6.864455            0           0           0  
      2.834201  0.005010  6.864793            0           0           0  
      1.430521  2.421695  6.794435            0           0           0  
      1.392312  0.795749  4.567612            0           0           0  
      0.006039  3.232955  4.546709            0           0           0  
      4.198882  0.812494  4.554307            0           0           0  
      2.807505  3.244593  4.560407            0           0           0  
      0.000000  1.615440  2.284570            0           0           0  
     -1.399010  4.038600  2.284570            0           0           0  
      2.798020  1.615440  2.284570            0           0           0  
      1.399010  4.038600  2.284570            0           0           0  
      0.000000  0.000000  0.000000            0           0           0  
      4.197033  2.423150  0.000000            0           0           0  
      2.798020  0.000000  0.000000            0           0           0  
      1.399010  2.423150  0.000000            0           0           0  

   4 f  =   20.852055 THz   131.017324 2PiTHz  695.549654 cm-1    86.237197 meV
             X         Y         Z           dx          dy          dz
      1.920325  4.354072  9.214884     0.162288   -0.278474   -0.511178  
      3.932470  0.967172  7.897336     0.425466    0.649607   -0.062822  
      5.147965  0.327653  8.890411    -0.007907    0.031477    0.026222  
     -2.737057  4.829452  6.911509            0           0           0  
     -1.372451  2.418984  6.864455            0           0           0  
      2.834201  0.005010  6.864793            0           0           0  
      1.430521  2.421695  6.794435            0           0           0  
      1.392312  0.795749  4.567612            0           0           0  
      0.006039  3.232955  4.546709            0           0           0  
      4.198882  0.812494  4.554307            0           0           0  
      2.807505  3.244593  4.560407            0           0           0  
      0.000000  1.615440  2.284570            0           0           0  
     -1.399010  4.038600  2.284570            0           0           0  
      2.798020  1.615440  2.284570            0           0           0  
      1.399010  4.038600  2.284570            0           0           0  
      0.000000  0.000000  0.000000            0           0           0  
      4.197033  2.423150  0.000000            0           0           0  
      2.798020  0.000000  0.000000            0           0           0  
      1.399010  2.423150  0.000000            0           0           0  

   5 f  =   12.753140 THz    80.130340 2PiTHz  425.398940 cm-1    52.742765 meV
             X         Y         Z           dx          dy          dz
      1.920325  4.354072  9.214884     0.132948   -0.073592    0.219151  
      3.932470  0.967172  7.897336    -0.224050    0.073045   -0.027058  
      5.147965  0.327653  8.890411    -0.060883    0.029036    0.223581  
     -2.737057  4.829452  6.911509            0           0           0  
     -1.372451  2.418984  6.864455            0           0           0  
      2.834201  0.005010  6.864793            0           0           0  
      1.430521  2.421695  6.794435            0           0           0  
      1.392312  0.795749  4.567612            0           0           0  
      0.006039  3.232955  4.546709            0           0           0  
      4.198882  0.812494  4.554307            0           0           0  
      2.807505  3.244593  4.560407            0           0           0  
      0.000000  1.615440  2.284570            0           0           0  
     -1.399010  4.038600  2.284570            0           0           0  
      2.798020  1.615440  2.284570            0           0           0  
      1.399010  4.038600  2.284570            0           0           0  
      0.000000  0.000000  0.000000            0           0           0  
      4.197033  2.423150  0.000000            0           0           0  
      2.798020  0.000000  0.000000            0           0           0  
      1.399010  2.423150  0.000000            0           0           0  

   6 f  =   11.377498 THz    71.486925 2PiTHz  379.512454 cm-1    47.053564 meV
             X         Y         Z           dx          dy          dz
      1.920325  4.354072  9.214884    -0.831990    0.400399   -0.080650  
      3.932470  0.967172  7.897336     0.121775    0.202358   -0.057116  
      5.147965  0.327653  8.890411     0.041050   -0.001872    0.058582  
     -2.737057  4.829452  6.911509            0           0           0  
     -1.372451  2.418984  6.864455            0           0           0  
      2.834201  0.005010  6.864793            0           0           0  
      1.430521  2.421695  6.794435            0           0           0  
      1.392312  0.795749  4.567612            0           0           0  
      0.006039  3.232955  4.546709            0           0           0  
      4.198882  0.812494  4.554307            0           0           0  
      2.807505  3.244593  4.560407            0           0           0  
      0.000000  1.615440  2.284570            0           0           0  
     -1.399010  4.038600  2.284570            0           0           0  
      2.798020  1.615440  2.284570            0           0           0  
      1.399010  4.038600  2.284570            0           0           0  
      0.000000  0.000000  0.000000            0           0           0  
      4.197033  2.423150  0.000000            0           0           0  
      2.798020  0.000000  0.000000            0           0           0  
      1.399010  2.423150  0.000000            0           0           0  

   7 f  =    5.043565 THz    31.689657 2PiTHz  168.235231 cm-1    20.858518 meV
             X         Y         Z           dx          dy          dz
      1.920325  4.354072  9.214884    -0.173260    0.109338   -0.047599  
      3.932470  0.967172  7.897336    -0.359095    0.223969   -0.011354  
      5.147965  0.327653  8.890411    -0.180036    0.100474   -0.077619  
     -2.737057  4.829452  6.911509            0           0           0  
     -1.372451  2.418984  6.864455            0           0           0  
      2.834201  0.005010  6.864793            0           0           0  
      1.430521  2.421695  6.794435            0           0           0  
      1.392312  0.795749  4.567612            0           0           0  
      0.006039  3.232955  4.546709            0           0           0  
      4.198882  0.812494  4.554307            0           0           0  
      2.807505  3.244593  4.560407            0           0           0  
      0.000000  1.615440  2.284570            0           0           0  
     -1.399010  4.038600  2.284570            0           0           0  
      2.798020  1.615440  2.284570            0           0           0  
      1.399010  4.038600  2.284570            0           0           0  
      0.000000  0.000000  0.000000            0           0           0  
      4.197033  2.423150  0.000000            0           0           0  
      2.798020  0.000000  0.000000            0           0           0  
      1.399010  2.423150  0.000000            0           0           0  

   8 f  =    3.050122 THz    19.164485 2PiTHz  101.741131 cm-1    12.614297 meV
             X         Y         Z           dx          dy          dz
      1.920325  4.354072  9.214884     0.174819    0.222816    0.110185  
      3.932470  0.967172  7.897336     0.001687    0.000539   -0.002362  
      5.147965  0.327653  8.890411     0.114458    0.208822   -0.004538  
     -2.737057  4.829452  6.911509            0           0           0  
     -1.372451  2.418984  6.864455            0           0           0  
      2.834201  0.005010  6.864793            0           0           0  
      1.430521  2.421695  6.794435            0           0           0  
      1.392312  0.795749  4.567612            0           0           0  
      0.006039  3.232955  4.546709            0           0           0  
      4.198882  0.812494  4.554307            0           0           0  
      2.807505  3.244593  4.560407            0           0           0  
      0.000000  1.615440  2.284570            0           0           0  
     -1.399010  4.038600  2.284570            0           0           0  
      2.798020  1.615440  2.284570            0           0           0  
      1.399010  4.038600  2.284570            0           0           0  
      0.000000  0.000000  0.000000            0           0           0  
      4.197033  2.423150  0.000000            0           0           0  
      2.798020  0.000000  0.000000            0           0           0  
      1.399010  2.423150  0.000000            0           0           0  

   9 f/i=   15.663781 THz    98.418437 2PiTHz  522.487471 cm-1    64.780214 meV
             X         Y         Z           dx          dy          dz
      1.920325  4.354072  9.214884    -0.068289    0.034926    0.020143  
      3.932470  0.967172  7.897336     0.681133   -0.437562    0.370993  
      5.147965  0.327653  8.890411    -0.095570    0.053462    0.023455  
     -2.737057  4.829452  6.911509            0           0           0  
     -1.372451  2.418984  6.864455            0           0           0  
      2.834201  0.005010  6.864793            0           0           0  
      1.430521  2.421695  6.794435            0           0           0  
      1.392312  0.795749  4.567612            0           0           0  
      0.006039  3.232955  4.546709            0           0           0  
      4.198882  0.812494  4.554307            0           0           0  
      2.807505  3.244593  4.560407            0           0           0  
      0.000000  1.615440  2.284570            0           0           0  
     -1.399010  4.038600  2.284570            0           0           0  
      2.798020  1.615440  2.284570            0           0           0  
      1.399010  4.038600  2.284570            0           0           0  
      0.000000  0.000000  0.000000            0           0           0  
      4.197033  2.423150  0.000000            0           0           0  
      2.798020  0.000000  0.000000            0           0           0  
      1.399010  2.423150  0.000000            0           0           0  

 Finite differences POTIM=   5.0000000000000000E-002
  LATTYP: Found a hexagonal cell.
 ALAT       =     5.5960428193
 C/A-ratio  =     3.6742347603
  
  Lattice vectors:
  
 A1 = (   5.5960430569,   0.0000000000,   0.0000000000)
 A2 = (  -2.7980215285,   4.8463151736,   0.0000000000)
 A3 = (   0.0000000000,   0.0000000000,  20.5611750468)
 Subroutine PRICEL returns:
 Original cell was already a primitive cell.
 

Analysis of symmetry for initial positions (statically):

 Routine SETGRP: Setting up the symmetry group for a 
 hexagonal supercell.


 Subroutine GETGRP returns: Found  1 space group operations
 (whereof  1 operations were pure point group operations)
 out of a pool of 24 trial point group operations.


The static configuration has the point symmetry C_1 .

Analysis of symmetry for dynamics (positions and initial velocities):

 Subroutine DYNSYM returns: Found  1 space group operations
 (whereof  1 operations were pure point group operations)
 out of a pool of  1 trial space group operations
 (whereof  1 operations were pure point group operations)
 and found also     1 'primitive' translations


The dynamic configuration has the point symmetry C_1 .

Analysis of constrained symmetry for selective dynamics:

 Subroutine DYNSYM returns: Found  1 space group operations
 (whereof  1 operations were pure point group operations)
 out of a pool of  1 trial space group operations
 (whereof  1 operations were pure point group operations)
 and found also     1 'primitive' translations


The constrained configuration has the point symmetry C_1 .

 mean value of Nose-termostat <S>:     1.000 mean value of <T> :     0.000
 mean temperature <T/S>/<1/S>  :     0.000

     LOOP+:  VPU time 3347.48: CPU time 3391.04
  
  
 General timing and accounting informations for this job:
 ========================================================
  
                  Total CPU time used (sec):    55806.851
                            User time (sec):    54515.325
                          System time (sec):     1291.526
                         Elapsed time (sec):    56416.768
  
                   Maximum memory used (kb):           0.
                   Average memory used (kb):           0.
  
                          Minor page faults:      4588648
                          Major page faults:           24
                 Voluntary context switches:      4966082
