 vasp.4.6.35 3Apr08 complex 
 executed on             LinuxPgi date 2008.10.31  17:08:00
 serial version


--------------------------------------------------------------------------------------------------------


 INCAR:
 POTCAR:    US C                                  
 POTCAR:    US C                                  
   VRHFIN =C: s2p2                                                              
   LEXCH  = CA                                                                  
   EATOM  =   145.2651 eV,   10.6767 Ry                                         
   GGA    =    -1.5891   -1.7004     .0187   -1.2720 eV                         
                                                                                
   TITEL  = US C                                                                
   LULTRA =        T    use ultrasoft PP ?                                      
   IUNSCR =        0    unscreen: 0-lin 1-nonlin 2-no                           
   RPACOR =     .000    partial core radius                                     
   POMASS =   12.011; ZVAL   =    4.000    mass and valenz                      
   RCORE  =    1.810    outmost cutoff radius                                   
   RWIGS  =    1.460; RWIGS  =     .773    wigner-seitz radius (au A)           
   ENMAX  =  286.567; ENMIN  =  214.925 eV                                      
   EAUG   =  544.787                                                            
                                                                                
   ICORE  =        2    local potential                                         
   LCOR   =        T    correct aug charges                                     
   RMAX   =    2.263    core radius for proj-oper                               
   QCUT   =   -4.589; QGAM   =    9.179    optimization parameters              
                                                                                
   Description                                                                  
     l     E      TYP  RCUT    TYP  RCUT                                        
     0   .000     15  1.320    23  1.630                                        
     0   .000     15  1.320    23  1.630                                        
     1   .000     15  1.470    23  1.810                                        
     1   .000     15  1.470    23  1.810                                        
     2  -.100      7  1.630     7  1.630                                        
  local pseudopotential read in
  atomic valenz-charges read in
  non local Contribution for L=            0  read in
    real space projection operators read in
  non local Contribution for L=            0  read in
    real space projection operators read in
  non local Contribution for L=            1  read in
    real space projection operators read in
  non local Contribution for L=            1  read in
    real space projection operators read in
    augmentation charges read in

   number of l-projection  operators is LMAX  =            4
   number of lm-projection operators is LMMAX =            8

  US C                                  :
 energy of atom  1       EATOM= -145.2651
 kinetic energy error for atom=    0.0176 (will be added to EATOM!!)

 EXHCAR: internal setup
 exchange correlation table for  LEXCH =        2
   RHO(1)=    0.500       N(1)  =     2000
   RHO(2)=  100.500       N(2)  =     4000

 POSCAR: cubic diamond                           
  positions in direct lattice
  No initial velocities read in



--------------------------------------------------------------------------------------------------------


 ion  position               nearest neighbor table
   1  0.000  0.000  0.000-   2 1.60   2 1.60   2 1.60   2 1.60
   2  0.250  0.250  0.250-   1 1.60   1 1.60   1 1.60   1 1.60

  LATTYP: Found a face centered cubic cell.
 ALAT       =     3.7000000000
  
  Lattice vectors:
  
 A1 = (   1.8500000000,   1.8500000000,   0.0000000000)
 A2 = (   0.0000000000,   1.8500000000,   1.8500000000)
 A3 = (   1.8500000000,   0.0000000000,   1.8500000000)
 Subroutine PRICEL returns:
 Original cell was already a primitive cell.
 

Analysis of symmetry for initial positions (statically):

 Routine SETGRP: Setting up the symmetry group for a 
 face centered cubic supercell.


 Subroutine GETGRP returns: Found 48 space group operations
 (whereof 24 operations were pure point group operations)
 out of a pool of 48 trial point group operations.


The static configuration has the point symmetry T_d .
 The point group associated with its full space group is O_h .

Analysis of symmetry for dynamics (positions and initial velocities):

 Subroutine DYNSYM returns: Found 48 space group operations
 (whereof 24 operations were pure point group operations)
 out of a pool of 48 trial space group operations
 (whereof 24 operations were pure point group operations)
 and found also     1 'primitive' translations


The dynamic configuration has the point symmetry T_d .
 The point group associated with its full space group is O_h .


 KPOINTS: 4x4x4                                   

Automatic generation of k-mesh.
 
 Subroutine IBZKPT returns following result:
 ===========================================
 
 Found     10 irreducible k-points:
 
 Following reciprocal coordinates:
            Coordinates               Weight
  0.125000  0.125000  0.125000     96.000000
  0.375000  0.125000  0.125000    288.000000
 -0.375000  0.125000  0.125000    288.000000
 -0.125000  0.125000  0.125000    288.000000
  0.375000  0.375000  0.125000    288.000000
 -0.375000  0.375000  0.125000    576.000000
 -0.125000  0.375000  0.125000    576.000000
 -0.375000 -0.375000  0.125000    288.000000
  0.375000  0.375000  0.375000     96.000000
 -0.375000  0.375000  0.375000    288.000000
 
 Following cartesian coordinates:
            Coordinates               Weight
  0.125000  0.125000  0.125000     96.000000
  0.375000  0.375000 -0.125000    288.000000
 -0.375000 -0.375000  0.625000    288.000000
 -0.125000 -0.125000  0.375000    288.000000
  0.125000  0.625000  0.125000    288.000000
 -0.625000 -0.125000  0.875000    576.000000
 -0.375000  0.125000  0.625000    576.000000
  0.125000 -0.875000  0.125000    288.000000
  0.375000  0.375000  0.375000     96.000000
 -0.375000 -0.375000  1.125000    288.000000
 
 TETIRR: Found    102 inequivalent tetrahedra from     3072


--------------------------------------------------------------------------------------------------------




 Dimension of arrays:
   k-Points           NKPTS =     10   number of bands    NBANDS=      8
   number of dos      NEDOS =    301   number of ions     NIONS =      2
   non local maximal  LDIM  =      4   non local SUM 2l+1 LMDIM =      8
   total plane-waves  NPLWV =   1728
   max r-space proj   IRMAX =      1   max aug-charges    IRDMAX=   2561
   dimension x,y,z NGX =    12 NGY =   12 NGZ =   12
   dimension x,y,z NGXF=    20 NGYF=   20 NGZF=   20
   support grid    NGXF=    20 NGYF=   20 NGZF=   20
   ions per type =               2
 NGX,Y,Z   is equivalent  to a cutoff of   7.63,  7.63,  7.63 a.u.
 NGXF,Y,Z  is equivalent  to a cutoff of  12.71, 12.71, 12.71 a.u.


 I would recommend the setting:
   dimension x,y,z NGX =    11 NGY =   11 NGZ =   11
 SYSTEM =  diamond                                 
 POSCAR =  cubic diamond                           

 Startparameter for this run:
   NWRITE =      2    write-flag & timer
   PREC   = medium    medium, high low
   ISTART =      0    job   : 0-new  1-cont  2-samecut
   ICHARG =      2    charge: 1-file 2-atom 10-const
   ISPIN  =      1    spin polarized calculation?
   LNONCOLLINEAR =      F non collinear calculations
   LSORBIT =      F    spin-orbit coupling
   INIWAV =      1    electr: 0-lowe 1-rand  2-diag
   LASPH  =      F    aspherical Exc in radial PAW
   METAGGA=      F    non-selfconsistent MetaGGA calc.

 Electronic Relaxation 1
   ENCUT  =  286.6 eV  21.06 Ry    4.59 a.u.   3.61  3.61  3.61*2*pi/ulx,y,z
   ENINI  =  286.6     initial cutoff
   ENAUG  =  544.8 eV  augmentation charge cutoff
   NELM   =     60;   NELMIN=  2; NELMDL= -5     # of ELM steps 
   EDIFF  = 0.1E-03   stopping-criterion for ELM
   LREAL  =      F    real-space projection
   LCOMPAT=      F    compatible to vasp.4.4
   LREAL_COMPAT= F    compatible to vasp.4.5.1-3
   GGA_COMPAT  = T    GGA compatible to vasp.4.4-vasp.4.6
   LMAXPAW     = -100 max onsite density
   LMAXMIX     =    2 max onsite mixed and CHGCAR
   VOSKOWN=      0    Vosko Wilk Nusair interpolation
   ROPT   =    0.00000
 Ionic relaxation
   EDIFFG = 0.1E-02   stopping-criterion for IOM
   NSW    =      0    number of steps for IOM
   NBLOCK =      1;   KBLOCK =      1    inner block; outer block 
   IBRION =     -1    ionic relax: 0-MD 1-quasi-New 2-CG
   NFREE  =      0    steps in history (QN), initial steepest desc. (CG)
   ISIF   =      2    stress and relaxation
   IWAVPR =      0    prediction:  0-non 1-charg 2-wave 3-comb
   ISYM   =      1    0-nonsym 1-usesym 2-fastsym
   LCORR  =      T    Harris-Foulkes like correction to forces

   POTIM  =   0.50    time-step for ionic-motion
   TEIN   =    0.0    initial temperature
   TEBEG  =    0.0;   TEEND  =   0.0 temperature during run
   SMASS  =  -3.00    Nose mass-parameter (am)
   estimated Nose-frequenzy (Omega)   =  0.10E-29 period in steps =****** mass=  -0.156E-27a.u.
   NPACO  =    256;   APACO  = 16.0  distance and # of slots for P.C.
   PSTRESS=    0.0 pullay stress

  Mass of Ions in am
   POMASS =  12.01
  Ionic Valenz
   ZVAL   =   4.00
  Atomic Wigner-Seitz radii
   RWIGS  =  -1.00
   NELECT =       8.0000    total number of electrons
   NUPDOWN=      -1.0000    fix difference up-down

 DOS related values:
   EMIN   =  10.00;   EMAX   =-10.00  energy-range for DOS
   ISMEAR =    -5;   SIGMA  =   0.20  broadening in eV -4-tet -1-fermi 0-gaus

 Electronic relaxation 2 (details)
   IALGO  =     38    algorithm
   LDIAG  =      T    sub-space diagonalisation
   IMIX   =      4    mixing-type and parameters
     AMIX     =   0.80;   BMIX     =  1.00
     AMIX_MAG =   3.20;   BMIX_MAG =  1.00
     AMIN     =   0.10
     WC   =   100.;   INIMIX=   1;  MIXPRE=   1

 Intra band minimization:
   WEIMIN = 0.0000     energy-eigenvalue tresh-hold
   EBREAK =  0.31E-05  absolut break condition
   DEPER  =   0.30     relativ break condition  

   TIME   =   0.10     timestep for ELM

  volume/ion in A,a.u.               =       6.33        42.73
  Fermi-wavevector in a.u.,eV,Ry     =   1.404720 26.847537  1.973238

 Second variation
   LSECVAR=     F    do a second variation

 Write flags
   LWAVE  =      T    write WAVECAR
   LCHARG =      T    write CHGCAR
   LVTOT  =      F    write LOCPOT, local potential
   LELF   =      F    write electronic localiz. function (ELF)
   LORBIT =      0    0 simple, 1 ext, 2 COOP (PROOUT)


 Dipole corrections
   IDIPOL =      0    1-x, 2-y, 3-z
   LDIPOL =      F    correct potential



--------------------------------------------------------------------------------------------------------


 Static calculation
 charge density will be updated during run
 non-spin polarized calculation
 Variant of blocked Davidson
 Davidson routine will perform the subspace rotation
 performe sub-space diagonalisation
    after iterative eigenvector-optimisation
 modified Broyden-mixing scheme, WC =      100.0
 initial mixing is a Kerker type mixing with AMIX =  0.8000 and BMIX =      1.0000
 Hartree-type preconditioning will be used
 using additional bands             4
 reciprocal scheme for non local part
 calculate Harris-corrections to forces 
   (improved forces if not selfconsistent)
 use of overlap-Matrix (Vanderbilt PP)
 Fermi weights with tetrahedron method with Bloechl corrections


--------------------------------------------------------------------------------------------------------


  energy-cutoff  :      286.57
  volume of cell :       12.66
      direct lattice vectors                 reciprocal lattice vectors
     1.850000000  1.850000000  0.000000000     0.270270270  0.270270270 -0.270270270
     0.000000000  1.850000000  1.850000000    -0.270270270  0.270270270  0.270270270
     1.850000000  0.000000000  1.850000000     0.270270270 -0.270270270  0.270270270

  length of vectors
     2.616295090  2.616295090  2.616295090     0.468121840  0.468121840  0.468121840



 k-points in units of 2pi/SCALE and weight: 4x4x4                                   
   0.12500000  0.12500000  0.12500000       0.031
   0.37500000  0.37500000 -0.12500000       0.094
  -0.37500000 -0.37500000  0.62500000       0.094
  -0.12500000 -0.12500000  0.37500000       0.094
   0.12500000  0.62500000  0.12500000       0.094
  -0.62500000 -0.12500000  0.87500000       0.188
  -0.37500000  0.12500000  0.62500000       0.188
   0.12500000 -0.87500000  0.12500000       0.094
   0.37500000  0.37500000  0.37500000       0.031
  -0.37500000 -0.37500000  1.12500000       0.094

 k-points in reciprocal lattice and weights: 4x4x4                                   
   0.12500000  0.12500000  0.12500000       0.031
   0.37500000  0.12500000  0.12500000       0.094
  -0.37500000  0.12500000  0.12500000       0.094
  -0.12500000  0.12500000  0.12500000       0.094
   0.37500000  0.37500000  0.12500000       0.094
  -0.37500000  0.37500000  0.12500000       0.188
  -0.12500000  0.37500000  0.12500000       0.188
  -0.37500000 -0.37500000  0.12500000       0.094
   0.37500000  0.37500000  0.37500000       0.031
  -0.37500000  0.37500000  0.37500000       0.094

 position of ions in fractional coordinates (direct lattice) 
   0.00000000  0.00000000  0.00000000
   0.25000000  0.25000000  0.25000000

 position of ions in cartesian coordinates  (Angst):
   0.00000000  0.00000000  0.00000000
   0.92500000  0.92500000  0.92500000



--------------------------------------------------------------------------------------------------------


 k-point  1 :  0.12500.12500.1250  plane waves:    147
 k-point  2 :  0.37500.12500.1250  plane waves:    142
 k-point  3 :  -.37500.12500.1250  plane waves:    138
 k-point  4 :  -.12500.12500.1250  plane waves:    140
 k-point  5 :  0.37500.37500.1250  plane waves:    139
 k-point  6 :  -.37500.37500.1250  plane waves:    138
 k-point  7 :  -.12500.37500.1250  plane waves:    141
 k-point  8 :  -.3750-.37500.1250  plane waves:    137
 k-point  9 :  0.37500.37500.3750  plane waves:    144
 k-point 10 :  -.37500.37500.3750  plane waves:    137

 maximum number of plane-waves:    147
 maximal index in each direction: 
   IXMAX=  3   IYMAX=  3   IZMAX=  3
   IXMIN= -3   IYMIN= -3   IZMIN= -3

 WARNING: wrap around error must be expected set NGX to  14
 WARNING: wrap around error must be expected set NGY to  14
 WARNING: wrap around error must be expected set NGZ to  14
 For storing wavefunctions    0.18 MBYTES are necessary
 For predicting wavefunctions    0.12 MBYTES are necessary
Broyden mixing: mesh for mixing (old mesh)
   NGX =  7   NGY =  7   NGZ =  7
  (NGX  = 20   NGY  = 20   NGZ  = 20)
 gives a total of    343 points
 initial charge density was supplied:
 charge density of overlapping atoms calculated
 number of electron    8.0000000 magnetization 
 keeping initial charge density in first step


--------------------------------------------------------------------------------------------------------


 Maximum index for augmentation-charges          2315 (set IRDMAX)


--------------------------------------------------------------------------------------------------------


 First call to EWALD:  gamma=   0.760
 Maximum number of real-space cells 3x 3x 3
 Maximum number of reciprocal cells 3x 3x 3

    FEWALD:  VPU time    0.00: CPU time    0.00


----------------------------------------- Iteration    1(   1)  ---------------------------------------


    POTLOK:  VPU time    0.00: CPU time    0.00
    SETDIJ:  VPU time    0.00: CPU time    0.00
    EDDAV :  VPU time    0.10: CPU time    0.09
 BZINTS: Fermi energy: 13.563136;  8.000000 electrons
         Band energy:   2.898206;  BLOECHL correction: -0.155367
    DOS   :  VPU time    0.00: CPU time    0.00
    ------------------------------------------
      LOOP:  VPU time    0.10: CPU time    0.10

 eigenvalue-minimisations  :   176
 total energy-change (2. order) :-0.7525481E+01  (-0.3061419E+03)
 number of electron    8.0000000 magnetization 
 augmentation part     8.0000000 magnetization 

 Free energy of the ion-electron system (eV)
  ---------------------------------------------------
  alpha Z        PSCENC =        26.09947367
  Ewald energy   TEWEN  =      -335.43241631
  -1/2 Hartree   DENC   =       -19.56447502
  -V(xc)+E(xc)   XCENC  =        27.97875864
  PAW double counting   =         0.00000000        0.00000000
  entropy T*S    EENTRO =         0.00000000
  eigenvalues    EBANDS =         2.89820587
  atomic energy  EATOM  =       290.49497205
  ---------------------------------------------------
  free energy    TOTEN  =        -7.52548110 eV

  energy without entropy =       -7.52548110  energy(sigma->0) =       -7.52548110


--------------------------------------------------------------------------------------------------------




----------------------------------------- Iteration    1(   2)  ---------------------------------------


    EDDAV :  VPU time    0.11: CPU time    0.11
 BZINTS: Fermi energy:  6.175528;  8.000000 electrons
         Band energy: -10.121905;  BLOECHL correction:  0.000000
    DOS   :  VPU time    0.00: CPU time    0.00
    ------------------------------------------
      LOOP:  VPU time    0.11: CPU time    0.11

 eigenvalue-minimisations  :   208
 total energy-change (2. order) :-0.1302011E+02  (-0.1263015E+02)
 number of electron    8.0000000 magnetization 
 augmentation part     8.0000000 magnetization 

 Free energy of the ion-electron system (eV)
  ---------------------------------------------------
  alpha Z        PSCENC =        26.09947367
  Ewald energy   TEWEN  =      -335.43241631
  -1/2 Hartree   DENC   =       -19.56447502
  -V(xc)+E(xc)   XCENC  =        27.97875864
  PAW double counting   =         0.00000000        0.00000000
  entropy T*S    EENTRO =         0.00000000
  eigenvalues    EBANDS =       -10.12190471
  atomic energy  EATOM  =       290.49497205
  ---------------------------------------------------
  free energy    TOTEN  =       -20.54559168 eV

  energy without entropy =      -20.54559168  energy(sigma->0) =      -20.54559168


--------------------------------------------------------------------------------------------------------




----------------------------------------- Iteration    1(   3)  ---------------------------------------


    EDDAV :  VPU time    0.10: CPU time    0.10
 BZINTS: Fermi energy:  6.141242;  8.000000 electrons
         Band energy: -10.150386;  BLOECHL correction:  0.000000
    DOS   :  VPU time    0.00: CPU time    0.00
    ------------------------------------------
      LOOP:  VPU time    0.11: CPU time    0.11

 eigenvalue-minimisations  :   192
 total energy-change (2. order) :-0.2848174E-01  (-0.2848174E-01)
 number of electron    8.0000000 magnetization 
 augmentation part     8.0000000 magnetization 

 Free energy of the ion-electron system (eV)
  ---------------------------------------------------
  alpha Z        PSCENC =        26.09947367
  Ewald energy   TEWEN  =      -335.43241631
  -1/2 Hartree   DENC   =       -19.56447502
  -V(xc)+E(xc)   XCENC  =        27.97875864
  PAW double counting   =         0.00000000        0.00000000
  entropy T*S    EENTRO =         0.00000000
  eigenvalues    EBANDS =       -10.15038645
  atomic energy  EATOM  =       290.49497205
  ---------------------------------------------------
  free energy    TOTEN  =       -20.57407342 eV

  energy without entropy =      -20.57407342  energy(sigma->0) =      -20.57407342


--------------------------------------------------------------------------------------------------------




----------------------------------------- Iteration    1(   4)  ---------------------------------------


    EDDAV :  VPU time    0.10: CPU time    0.11
 BZINTS: Fermi energy:  6.140966;  8.000000 electrons
         Band energy: -10.150400;  BLOECHL correction:  0.000000
    DOS   :  VPU time    0.00: CPU time    0.00
    ------------------------------------------
      LOOP:  VPU time    0.11: CPU time    0.11

 eigenvalue-minimisations  :   200
 total energy-change (2. order) :-0.1336207E-04  (-0.1336207E-04)
 number of electron    8.0000000 magnetization 
 augmentation part     8.0000000 magnetization 

 Free energy of the ion-electron system (eV)
  ---------------------------------------------------
  alpha Z        PSCENC =        26.09947367
  Ewald energy   TEWEN  =      -335.43241631
  -1/2 Hartree   DENC   =       -19.56447502
  -V(xc)+E(xc)   XCENC  =        27.97875864
  PAW double counting   =         0.00000000        0.00000000
  entropy T*S    EENTRO =         0.00000000
  eigenvalues    EBANDS =       -10.15039981
  atomic energy  EATOM  =       290.49497205
  ---------------------------------------------------
  free energy    TOTEN  =       -20.57408679 eV

  energy without entropy =      -20.57408679  energy(sigma->0) =      -20.57408679


--------------------------------------------------------------------------------------------------------




----------------------------------------- Iteration    1(   5)  ---------------------------------------


    EDDAV :  VPU time    0.08: CPU time    0.08
 BZINTS: Fermi energy:  6.140965;  8.000000 electrons
         Band energy: -10.150400;  BLOECHL correction:  0.000000
    DOS   :  VPU time    0.00: CPU time    0.00
    CHARGE:  VPU time    0.01: CPU time    0.01
    MIXING:  VPU time    0.00: CPU time    0.00
    ------------------------------------------
      LOOP:  VPU time    0.09: CPU time    0.09

 eigenvalue-minimisations  :   144
 total energy-change (2. order) :-0.3338563E-08  (-0.3338570E-08)
 number of electron    7.9999986 magnetization 
 augmentation part     0.2723454 magnetization 

 Broyden mixing:
  rms(total) = 0.41671E+00    rms(broyden)= 0.41500E+00
  rms(prec ) = 0.15823E+01
  weight for this iteration     100.00

 Free energy of the ion-electron system (eV)
  ---------------------------------------------------
  alpha Z        PSCENC =        26.09947367
  Ewald energy   TEWEN  =      -335.43241631
  -1/2 Hartree   DENC   =       -19.56447502
  -V(xc)+E(xc)   XCENC  =        27.97875864
  PAW double counting   =         0.00000000        0.00000000
  entropy T*S    EENTRO =         0.00000000
  eigenvalues    EBANDS =       -10.15039982
  atomic energy  EATOM  =       290.49497205
  ---------------------------------------------------
  free energy    TOTEN  =       -20.57408679 eV

  energy without entropy =      -20.57408679  energy(sigma->0) =      -20.57408679


--------------------------------------------------------------------------------------------------------




----------------------------------------- Iteration    1(   6)  ---------------------------------------


    POTLOK:  VPU time    0.00: CPU time    0.00
    SETDIJ:  VPU time    0.00: CPU time    0.00
    EDDAV :  VPU time    0.09: CPU time    0.09
 BZINTS: Fermi energy:  7.298749;  8.000000 electrons
         Band energy:  -3.084816;  BLOECHL correction:  0.000000
    DOS   :  VPU time    0.00: CPU time    0.00
    CHARGE:  VPU time    0.00: CPU time    0.01
    MIXING:  VPU time    0.00: CPU time    0.00
    ------------------------------------------
      LOOP:  VPU time    0.10: CPU time    0.10

 eigenvalue-minimisations  :   168
 total energy-change (2. order) : 0.5439142E+00  (-0.1165470E+00)
 number of electron    7.9999986 magnetization 
 augmentation part     0.2537728 magnetization 

 Broyden mixing:
  rms(total) = 0.59097E-01    rms(broyden)= 0.58889E-01
  rms(prec ) = 0.17142E+00
  weight for this iteration     100.00

 eigenvalues of (default mixing * dielectric matrix)
  average eigenvalue GAMMA=   1.0841
  1.0841

 Free energy of the ion-electron system (eV)
  ---------------------------------------------------
  alpha Z        PSCENC =        26.09947367
  Ewald energy   TEWEN  =      -335.43241631
  -1/2 Hartree   DENC   =       -26.85498311
  -V(xc)+E(xc)   XCENC  =        28.74759735
  PAW double counting   =         0.00000000        0.00000000
  entropy T*S    EENTRO =         0.00000000
  eigenvalues    EBANDS =        -3.08481620
  atomic energy  EATOM  =       290.49497205
  ---------------------------------------------------
  free energy    TOTEN  =       -20.03017255 eV

  energy without entropy =      -20.03017255  energy(sigma->0) =      -20.03017255


--------------------------------------------------------------------------------------------------------




----------------------------------------- Iteration    1(   7)  ---------------------------------------


    POTLOK:  VPU time    0.00: CPU time    0.00
    SETDIJ:  VPU time    0.00: CPU time    0.00
    EDDAV :  VPU time    0.08: CPU time    0.08
 BZINTS: Fermi energy:  7.348894;  8.000000 electrons
         Band energy:  -2.657797;  BLOECHL correction:  0.000000
    DOS   :  VPU time    0.00: CPU time    0.00
    CHARGE:  VPU time    0.01: CPU time    0.01
    MIXING:  VPU time    0.00: CPU time    0.00
    ------------------------------------------
      LOOP:  VPU time    0.10: CPU time    0.10

 eigenvalue-minimisations  :   160
 total energy-change (2. order) : 0.2012135E-02  (-0.3902770E-03)
 number of electron    7.9999986 magnetization 
 augmentation part     0.2535092 magnetization 

 Broyden mixing:
  rms(total) = 0.96741E-02    rms(broyden)= 0.96000E-02
  rms(prec ) = 0.26862E-01
  weight for this iteration     100.00

 eigenvalues of (default mixing * dielectric matrix)
  average eigenvalue GAMMA=   1.1520
  1.2620  1.0420

 Free energy of the ion-electron system (eV)
  ---------------------------------------------------
  alpha Z        PSCENC =        26.09947367
  Ewald energy   TEWEN  =      -335.43241631
  -1/2 Hartree   DENC   =       -27.33380134
  -V(xc)+E(xc)   XCENC  =        28.80140857
  PAW double counting   =         0.00000000        0.00000000
  entropy T*S    EENTRO =         0.00000000
  eigenvalues    EBANDS =        -2.65779706
  atomic energy  EATOM  =       290.49497205
  ---------------------------------------------------
  free energy    TOTEN  =       -20.02816042 eV

  energy without entropy =      -20.02816042  energy(sigma->0) =      -20.02816042


--------------------------------------------------------------------------------------------------------




----------------------------------------- Iteration    1(   8)  ---------------------------------------


    POTLOK:  VPU time    0.00: CPU time    0.00
    SETDIJ:  VPU time    0.00: CPU time    0.00
    EDDAV :  VPU time    0.11: CPU time    0.11
 BZINTS: Fermi energy:  7.352364;  8.000000 electrons
         Band energy:  -2.619552;  BLOECHL correction:  0.000000
    DOS   :  VPU time    0.00: CPU time    0.00
    ------------------------------------------
      LOOP:  VPU time    0.11: CPU time    0.11

 eigenvalue-minimisations  :   200
 total energy-change (2. order) : 0.5882983E-05  (-0.4642652E-05)
 number of electron    7.9999986 magnetization 
 augmentation part     0.2535092 magnetization 

 Free energy of the ion-electron system (eV)
  ---------------------------------------------------
  alpha Z        PSCENC =        26.09947367
  Ewald energy   TEWEN  =      -335.43241631
  -1/2 Hartree   DENC   =       -27.37766290
  -V(xc)+E(xc)   XCENC  =        28.80703072
  PAW double counting   =         0.00000000        0.00000000
  entropy T*S    EENTRO =         0.00000000
  eigenvalues    EBANDS =        -2.61955176
  atomic energy  EATOM  =       290.49497205
  ---------------------------------------------------
  free energy    TOTEN  =       -20.02815453 eV

  energy without entropy =      -20.02815453  energy(sigma->0) =      -20.02815453


--------------------------------------------------------------------------------------------------------




 average (electrostatic) potential at core
  the test charge radii are     0.9482
  (the norm of the test charge is              1.0000)
       1 -44.2796       2 -44.2796



 E-fermi :   7.3524     XC(G=0): -12.9391     alpha+bet :-16.0076
   add alpha+bet to get absolut eigen values

 k-point   1 :       0.1250    0.1250    0.1250
  band No.  band energies     occupation 
      1     -11.5520      2.00000
      2       5.7161      2.00000
      3       7.3340      2.00000
      4       7.3340      2.00000
      5      13.9034      0.00000
      6      13.9034      0.00000
      7      14.1926      0.00000
      8      19.5251      0.00000

 k-point   2 :       0.3750    0.1250    0.1250
  band No.  band energies     occupation 
      1      -9.4634      2.00000
      2       0.7971      2.00000
      3       3.9684      2.00000
      4       6.2574      2.00000
      5      15.4282      0.00000
      6      15.7374      0.00000
      7      16.5784      0.00000
      8      20.5031      0.00000

 k-point   3 :      -0.3750    0.1250    0.1250
  band No.  band energies     occupation 
      1      -6.7361      2.00000
      2      -3.5509      2.00000
      3       4.1358      2.00000
      4       4.7557      2.00000
      5      14.9822      0.00000
      6      16.9515      0.00000
      7      16.9919      0.00000
      8      21.7417      0.00000

 k-point   4 :      -0.1250    0.1250    0.1250
  band No.  band energies     occupation 
      1     -10.4957      2.00000
      2       3.2566      2.00000
      3       5.3569      2.00000
      4       6.0388      2.00000
      5      13.3385      0.00000
      6      16.3351      0.00000
      7      16.5364      0.00000
      8      19.3640      0.00000

 k-point   5 :       0.3750    0.3750    0.1250
  band No.  band energies     occupation 
      1      -8.4324      2.00000
      2       0.9501      2.00000
      3       3.1776      2.00000
      4       3.5763      2.00000
      5      12.7332      0.00000
      6      16.5775      0.00000
      7      19.5223      0.00000
      8      19.5856      0.00000

 k-point   6 :      -0.3750    0.3750    0.1250
  band No.  band energies     occupation 
      1      -4.8552      2.00000
      2      -2.4301      2.00000
      3       0.3266      2.00000
      4       2.2351      2.00000
      5      14.9254      0.00000
      6      18.0004      0.00000
      7      19.1348      0.00000
      8      21.2516      0.00000

 k-point   7 :      -0.1250    0.3750    0.1250
  band No.  band energies     occupation 
      1      -7.4757      2.00000
      2      -1.1347      2.00000
      3       2.2061      2.00000
      4       4.2520      2.00000
      5      15.2950      0.00000
      6      16.7214      0.00000
      7      18.9726      0.00000
      8      20.0372      0.00000

 k-point   8 :      -0.3750   -0.3750    0.1250
  band No.  band energies     occupation 
      1      -5.4936      2.00000
      2      -2.0219      2.00000
      3       1.3307      2.00000
      4       2.6063      2.00000
      5      12.5890      0.00000
      6      14.4562      0.00000
      7      21.9503      0.00000
      8      22.1135      0.00000

 k-point   9 :       0.3750    0.3750    0.3750
  band No.  band energies     occupation 
      1      -8.4747      2.00000
      2      -1.8598      2.00000
      3       5.6418      2.00000
      4       5.6418      2.00000
      5      15.4212      0.00000
      6      15.7204      0.00000
      7      15.7204      0.00000
      8      21.8928      0.00000

 k-point  10 :      -0.3750    0.3750    0.3750
  band No.  band energies     occupation 
      1      -5.8141      2.00000
      2      -2.7056      2.00000
      3       0.8767      2.00000
      4       4.1497      2.00000
      5      14.3002      0.00000
      6      18.6616      0.00000
      7      19.6464      0.00000
      8      21.2268      0.00000


--------------------------------------------------------------------------------------------------------


 soft charge-density along one line, spin component            1
         0         1         2         3         4         5         6         7         8         9
x     7.7465    1.3223    0.0000   -0.0375   -0.0064    0.0000    0.0000
y     7.7465    1.3400    0.0000   -0.0481   -0.0078    0.0000    0.0000
z     7.7465    1.3415    0.0000   -0.0530   -0.0084    0.0000    0.0000
 total charge-density along one line
x     8.0000    1.4170    0.0000   -0.0826   -0.0624   -0.0080    0.0000   -0.0001   -0.0001    0.0000
x     0.0000
y     8.0000    1.4170    0.0000   -0.0826   -0.0624   -0.0080    0.0000   -0.0001   -0.0001    0.0000
y     0.0000
z     8.0000    1.4170    0.0000   -0.0826   -0.0624   -0.0080    0.0000   -0.0001   -0.0001    0.0000
z     0.0000

 pseudopotential strength for first ion, spin component:            1
  8.726 -11.029   0.000   0.000   0.000   0.000   0.000   0.000
-11.029  15.450   0.000   0.000   0.000   0.000   0.000   0.000
  0.000   0.000 -11.842   0.000   0.000  44.234   0.000   0.000
  0.000   0.000   0.000 -11.842   0.000   0.000  44.234   0.000
  0.000   0.000   0.000   0.000 -11.842   0.000   0.000  44.234
  0.000   0.000  44.234   0.000   0.000 -67.993   0.000   0.000
  0.000   0.000   0.000  44.234   0.000   0.000 -67.993   0.000
  0.000   0.000   0.000   0.000  44.234   0.000   0.000 -67.993
 total augmentation occupancy for first ion, spin component:            1
  1.615  -0.094  -0.002   0.010  -0.001   0.001  -0.001   0.000
 -0.094   0.009   0.001   0.000   0.000   0.000   0.000   0.000
 -0.002   0.001   0.165   0.002  -0.020  -0.015   0.000  -0.001
  0.010   0.000   0.002   0.174   0.013   0.000  -0.015   0.001
 -0.001   0.000  -0.020   0.013   0.187  -0.001   0.000  -0.014
  0.001   0.000  -0.015   0.000  -0.001   0.002   0.000   0.000
 -0.001   0.000   0.000  -0.015   0.000   0.000   0.002   0.000
  0.000   0.000  -0.001   0.001  -0.014   0.000   0.000   0.001


------------------------ aborting loop because EDIFF is reached ----------------------------------------




--------------------------------------------------------------------------------------------------------


    CHARGE:  VPU time    0.01: CPU time    0.01
    FORLOC:  VPU time    0.00: CPU time    0.00
    FORNL :  VPU time    0.02: CPU time    0.02
    STRESS:  VPU time    0.06: CPU time    0.05
    FORHAR:  VPU time    0.00: CPU time    0.00
    MIXING:  VPU time    0.00: CPU time    0.00


--------------------------------------------------------------------------------------------------------



  FREE ENERGIE OF THE ION-ELECTRON SYSTEM (eV)
  ---------------------------------------------------
  free  energy   TOTEN  =       -20.028155 eV

  energy  without entropy=      -20.028155  energy(sigma->0) =      -20.028155


  FORCE on cell =-STRESS in cart. coord.  units (eV/reduce length):
  Direction    X        Y        Z        XY       YZ       ZX
  --------------------------------------------------------------------------------------
  Alpha Z     26.10     26.10     26.10
  Ewald     -111.81   -111.81   -111.81      0.00      0.00      0.00
  Hartree      9.13      9.13      9.13      0.00      0.00      0.00
  E(xc)      -28.81    -28.81    -28.81      0.00      0.00      0.00
  Local      -13.01    -13.01    -13.01      0.00      0.00      0.00
  n-local     -0.98     -2.98     -2.50     -0.44      0.05      0.39
  augment      3.94      3.77      3.85     -0.15      0.02      0.09
  Kinetic    108.95    113.45    114.76     -0.79      0.07     -0.09
  -------------------------------------------------------------------------------------
  Total       -4.31     -4.31     -4.31      0.00      0.00      0.00
  in kB     -545.79   -545.79   -545.79      0.00      0.00      0.00
  external pressure =     -545.79 kB  Pullay stress =        0.00 kB


 VOLUME and BASIS-vectors are now :
 -----------------------------------------------------------------------------
  energy-cutoff  :      286.57
  volume of cell :       12.66
      direct lattice vectors                 reciprocal lattice vectors
     1.850000000  1.850000000  0.000000000     0.270270270  0.270270270 -0.270270270
     0.000000000  1.850000000  1.850000000    -0.270270270  0.270270270  0.270270270
     1.850000000  0.000000000  1.850000000     0.270270270 -0.270270270  0.270270270

  length of vectors
     2.616295090  2.616295090  2.616295090     0.468121840  0.468121840  0.468121840


 FORCES acting on ions
    electron-ion (+dipol)            ewald-force                    non-local-force                 convergence-correction
 -----------------------------------------------------------------------------------------------
   0.275E-05 0.275E-05 -.143E-05   0.279E-14 0.453E-14 0.350E-14   0.555E-16 0.364E-16 0.364E-16   -.494E-05 -.494E-05 -.428E-05
   -.275E-05 -.275E-05 0.143E-05   -.299E-14 -.488E-14 -.312E-14   -.590E-16 -.382E-16 -.278E-16   0.494E-05 0.494E-05 0.428E-05
 -----------------------------------------------------------------------------------------------
   -.209E-13 -.144E-13 0.270E-14   -.204E-15 -.346E-15 0.384E-15   -.347E-17 -.173E-17 0.867E-17   0.244E-14 0.350E-14 0.415E-15


 POSITION                                       TOTAL-FORCE (eV/Angst)
 -----------------------------------------------------------------------------------
      0.00000      0.00000      0.00000         0.000000      0.000000      0.000000
      0.92500      0.92500      0.92500         0.000000      0.000000      0.000000
 -----------------------------------------------------------------------------------
    total drift:                                0.000000      0.000000      0.000000


--------------------------------------------------------------------------------------------------------



 mean value of Nose-termostat <S>:     1.000 mean value of <T> :     0.000
 mean temperature <T/S>/<1/S>  :     0.000

 writing wavefunctions
     LOOP+:  VPU time    0.96: CPU time    0.97
  
  
 General timing and accounting informations for this job:
 ========================================================
  
                  Total CPU time used (sec):        1.224
                            User time (sec):        1.204
                          System time (sec):        0.020
                         Elapsed time (sec):        1.223
  
                   Maximum memory used (kb):           0.
                   Average memory used (kb):           0.
  
                          Minor page faults:        17211
                          Major page faults:            0
                 Voluntary context switches:            0
