 vasp.4.6.34 5Dec07 complex 
 executed on         LinuxIFC_ath date 2009.12.21  16:45:46
 running on   14 nodes
 distr:  one band on    1 nodes,   14 groups


--------------------------------------------------------------------------------------------------------


 INCAR:
 POTCAR:    PAW O                                 
 POTCAR:    Ce: PAW 5s5p 6s5d4f valence           
 POTCAR:    PAW Au                                
 POTCAR:    PAW C                                 
 POTCAR:    PAW O                                 
   VRHFIN =O: s2p4                                                              
   LEXCH  = 91                                                                  
   EATOM  =   433.0277 eV,   31.8266 Ry                                         
                                                                                
   TITEL  = PAW O                                                               
   LULTRA =        F    use ultrasoft PP ?                                      
   IUNSCR =        0    unscreen: 0-lin 1-nonlin 2-no                           
   RPACOR =     .000    partial core radius                                     
   POMASS =   16.000; ZVAL   =    6.000    mass and valenz                      
   RCORE  =    1.520    outmost cutoff radius                                   
   RWIGS  =    1.550; RWIGS  =     .820    wigner-seitz radius (au A)           
   ENMAX  =  400.000; ENMIN  =  300.000 eV                                      
   ICORE  =        2    local potential                                         
   LCOR   =        T    correct aug charges                                     
   LPAW   =        T    paw PP                                                  
   EAUG   =  605.392                                                            
   DEXC   =     .000                                                            
   RMAX   =    2.264    core radius for proj-oper                               
   RAUG   =    1.300    factor for augmentation sphere                          
   RDEP   =    1.550    radius for radial grids                                 
   QCUT   =   -5.520; QGAM   =   11.040    optimization parameters              
                                                                                
   Description                                                                  
     l     E      TYP  RCUT    TYP  RCUT                                        
     0   .000     23  1.200                                                     
     0  -.700     23  1.200                                                     
     1   .000     23  1.520                                                     
     1   .600     23  1.520                                                     
     2   .000      7  1.500                                                     
  local pseudopotential read in
  atomic valenz-charges read in
  non local Contribution for L=           0  read in
    real space projection operators read in
  non local Contribution for L=           0  read in
    real space projection operators read in
  non local Contribution for L=           1  read in
    real space projection operators read in
  non local Contribution for L=           1  read in
    real space projection operators read in
    PAW grid and wavefunctions read in
 
   number of l-projection  operators is LMAX  =           4
   number of lm-projection operators is LMMAX =           8
 
 POTCAR:    Ce: PAW 5s5p 6s5d4f valence           
   VRHFIN =Ce : [core=Xe4] s2d1f1                                               
   LEXCH  = 91                                                                  
   EATOM  =  1063.7395 eV,   78.1826 Ry                                         
                                                                                
   TITEL  = Ce: PAW 5s5p 6s5d4f valence                                         
   LULTRA =        F    use ultrasoft PP ?                                      
   IUNSCR =        1    unscreen: 0-lin 1-nonlin 2-no                           
   RPACOR =    1.800    partial core radius                                     
   POMASS =  140.115; ZVAL   =   12.000    mass and valenz                      
   RCORE  =    2.570    outmost cutoff radius                                   
   RWIGS  =    2.500; RWIGS  =    1.323    wigner-seitz radius (au A)           
   ENMAX  =  300.014; ENMIN  =  225.011 eV                                      
   RCLOC  =    1.810    cutoff for local pot                                    
   LCOR   =        T    correct aug charges                                     
   LPAW   =        T    paw PP                                                  
   EAUG   =  659.424                                                            
   DEXC   =     .000                                                            
   RMAX   =    2.662    core radius for proj-oper                               
   RAUG   =    1.300    factor for augmentation sphere                          
   RDEP   =    2.636    radius for radial grids                                 
   QCUT   =   -4.696; QGAM   =    9.392    optimization parameters              
                                                                                
   Description                                                                  
     l     E      TYP  RCUT    TYP  RCUT                                        
     0   .000     23  1.500                                                     
     0   .000     23  1.650                                                     
     0   .000     23  1.500                                                     
     0   .000     23  1.650                                                     
     1   .000     23  1.800                                                     
     1  4.000     23  1.800                                                     
     2   .000     23  2.300                                                     
     2   .000     23  2.300                                                     
     3   .000     23  2.570                                                     
     3 -1.000     23  2.570                                                     
  local pseudopotential read in
  partial core-charges read in
  atomic valenz-charges read in
  non local Contribution for L=           0  read in
    real space projection operators read in
  non local Contribution for L=           0  read in
    real space projection operators read in
  non local Contribution for L=           1  read in
    real space projection operators read in
  non local Contribution for L=           1  read in
    real space projection operators read in
  non local Contribution for L=           2  read in
    real space projection operators read in
  non local Contribution for L=           2  read in
    real space projection operators read in
  non local Contribution for L=           3  read in
    real space projection operators read in
  non local Contribution for L=           3  read in
    real space projection operators read in
    PAW grid and wavefunctions read in
 
   number of l-projection  operators is LMAX  =           8
   number of lm-projection operators is LMMAX =          32
 
 POTCAR:    PAW Au                                
   VRHFIN =Au: s1d10                                                            
   LEXCH  = 91                                                                  
   EATOM  =   927.0928 eV,   68.1394 Ry                                         
                                                                                
   TITEL  = PAW Au                                                              
   LULTRA =        F    use ultrasoft PP ?                                      
   IUNSCR =        1    unscreen: 0-lin 1-nonlin 2-no                           
   RPACOR =    2.330    partial core radius                                     
   POMASS =  196.966; ZVAL   =   11.000    mass and valenz                      
   RCORE  =    2.500    outmost cutoff radius                                   
   RWIGS  =    2.840; RWIGS  =    1.503    wigner-seitz radius (au A)           
   ENMAX  =  229.938; ENMIN  =  172.453 eV                                      
   RCLOC  =    1.964    cutoff for local pot                                    
   LCOR   =        T    correct aug charges                                     
   LPAW   =        T    paw PP                                                  
   EAUG   =  356.670                                                            
   DEXC   =    -.008                                                            
   RMAX   =    3.041    core radius for proj-oper                               
   RAUG   =    1.300    factor for augmentation sphere                          
   RDEP   =    2.598    core radius for depl-charge                             
   QCUT   =   -4.111; QGAM   =    8.222    optimization parameters              
                                                                                
   Description                                                                  
     l     E      TYP  RCUT    TYP  RCUT                                        
     2   .000     23  2.500                                                     
     2   .000     23  2.500                                                     
     0   .000     23  2.500                                                     
     0   .000     23  2.500                                                     
     1  -.200     23  2.500                                                     
     1   .000     23  2.500                                                     
     3   .000      7   .000                                                     
  local pseudopotential read in
  partial core-charges read in
  atomic valenz-charges read in
  non local Contribution for L=           2  read in
    real space projection operators read in
  non local Contribution for L=           2  read in
    real space projection operators read in
  non local Contribution for L=           0  read in
    real space projection operators read in
  non local Contribution for L=           0  read in
    real space projection operators read in
  non local Contribution for L=           1  read in
    real space projection operators read in
  non local Contribution for L=           1  read in
    real space projection operators read in
    PAW grid and wavefunctions read in
 
   number of l-projection  operators is LMAX  =           6
   number of lm-projection operators is LMMAX =          18
 
 POTCAR:    PAW C                                 
   VRHFIN =C: s2p2                                                              
   LEXCH  = 91                                                                  
   EATOM  =   147.4688 eV,   10.8386 Ry                                         
                                                                                
   TITEL  = PAW C                                                               
   LULTRA =        F    use ultrasoft PP ?                                      
   IUNSCR =        0    unscreen: 0-lin 1-nonlin 2-no                           
   RPACOR =     .000    partial core radius                                     
   POMASS =   12.011; ZVAL   =    4.000    mass and valenz                      
   RCORE  =    1.500    outmost cutoff radius                                   
   RWIGS  =    1.630; RWIGS  =     .863    wigner-seitz radius (au A)           
   ENMAX  =  400.000; ENMIN  =  300.000 eV                                      
   ICORE  =        2    local potential                                         
   LCOR   =        T    correct aug charges                                     
   LPAW   =        T    paw PP                                                  
   EAUG   =  644.873                                                            
   DEXC   =     .000                                                            
   RMAX   =    2.266    core radius for proj-oper                               
   RAUG   =    1.300    factor for augmentation sphere                          
   RDEP   =    1.501    radius for radial grids                                 
   RDEPT  =    1.300    core radius for aug-charge                              
   QCUT   =   -5.516; QGAM   =   11.033    optimization parameters              
                                                                                
   Description                                                                  
     l     E      TYP  RCUT    TYP  RCUT                                        
     0   .000     23  1.200                                                     
     0   .000     23  1.200                                                     
     1   .000     23  1.500                                                     
     1  2.500     23  1.500                                                     
     2   .000      7  1.500                                                     
  local pseudopotential read in
  atomic valenz-charges read in
  non local Contribution for L=           0  read in
    real space projection operators read in
  non local Contribution for L=           0  read in
    real space projection operators read in
  non local Contribution for L=           1  read in
    real space projection operators read in
  non local Contribution for L=           1  read in
    real space projection operators read in
    PAW grid and wavefunctions read in
 
   number of l-projection  operators is LMAX  =           4
   number of lm-projection operators is LMMAX =           8
 
 Optimization of the real space projectors (new method)

 maximal supplied QI-value         = 24.76
 optimisation between [QCUT,QGAM] = [  9.41, 23.77] = [ 24.78,158.16] Ry 
 Optimized for a Real-space Cutoff    1.02 Angstroem

   l    n(q)    QCUT    max X(q) W(low)/X(q) W(high)/X(q)  e(spline) 
   0      7     9.407     4.138    0.73E-04    0.68E-04    0.18E-07
   0      7     9.407     8.500    0.36E-03    0.40E-03    0.62E-07
   1      7     9.407     2.482    0.33E-04    0.84E-04    0.22E-07
   1      7     9.407     3.878    0.68E-04    0.35E-03    0.29E-07
 Optimization of the real space projectors (new method)

 maximal supplied QI-value         = 14.55
 optimisation between [QCUT,QGAM] = [  9.46, 23.86] = [ 25.05,159.47] Ry 
 Optimized for a Real-space Cutoff    1.54 Angstroem

   l    n(q)    QCUT    max X(q) W(low)/X(q) W(high)/X(q)  e(spline) 
   0     11     9.458     5.441    0.51E-05    0.15E-06    0.30E-07
   0     11     9.458    18.689    0.23E-04    0.36E-06    0.34E-06
   1     11     9.458     2.980    0.59E-06    0.23E-05    0.25E-07
   1     11     9.458     4.693    0.15E-05    0.62E-05    0.16E-06
   2     10     9.458     3.996    0.18E-05    0.86E-05    0.14E-06
   2     10     9.458    25.717    0.38E-05    0.23E-04    0.48E-06
   3     10     9.458     5.331    0.56E-05    0.15E-04    0.68E-07
   3     10     9.458     4.589    0.26E-03    0.65E-04    0.13E-05
 Optimization of the real space projectors (new method)

 maximal supplied QI-value         = 15.12
 optimisation between [QCUT,QGAM] = [  9.52, 23.89] = [ 25.40,159.77] Ry 
 Optimized for a Real-space Cutoff    1.45 Angstroem

   l    n(q)    QCUT    max X(q) W(low)/X(q) W(high)/X(q)  e(spline) 
   2      9     9.524     3.713    0.67E-05    0.14E-04    0.12E-06
   2      9     9.524    30.291    0.96E-04    0.26E-03    0.13E-05
   0     10     9.524    12.843    0.17E-04    0.15E-05    0.27E-07
   0     10     9.524    62.875    0.53E-04    0.57E-04    0.20E-06
   1     10     9.524     6.940    0.21E-05    0.16E-04    0.77E-07
   1     10     9.524    10.032    0.43E-04    0.61E-04    0.52E-06
 Optimization of the real space projectors (new method)

 maximal supplied QI-value         = 25.13
 optimisation between [QCUT,QGAM] = [  9.55, 23.88] = [ 25.54,159.64] Ry 
 Optimized for a Real-space Cutoff    0.93 Angstroem

   l    n(q)    QCUT    max X(q) W(low)/X(q) W(high)/X(q)  e(spline) 
   0      7     9.551     5.568    0.10E-03    0.83E-04    0.25E-07
   0      7     9.551    69.244    0.21E-03    0.64E-03    0.15E-06
   1      6     9.551     2.779    0.52E-04    0.10E-03    0.28E-07
   1      6     9.551     4.506    0.35E-03    0.60E-03    0.32E-07
  PAW O                                 :
 energy of atom  1       EATOM= -433.0277
 kinetic energy error for atom=    0.3772 (will be added to EATOM!!)
  Ce: PAW 5s5p 6s5d4f valence           :
 energy of atom  2       EATOM=-1063.7395
 kinetic energy error for atom=    0.0682 (will be added to EATOM!!)
  PAW Au                                :
 energy of atom  3       EATOM= -927.0928
 kinetic energy error for atom=    0.0152 (will be added to EATOM!!)
  PAW C                                 :
 energy of atom  4       EATOM= -147.4688
 kinetic energy error for atom=    0.0856 (will be added to EATOM!!)
 
 EXHCAR: internal setup
 exchange correlation table for  LEXCH =        7
   RHO(1)=    0.500       N(1)  =     2000
   RHO(2)=  100.500       N(2)  =     4000
 
 POSCAR: CeO2bulk                                
  positions in direct lattice
  velocities in cartesian coordinates
  No initial velocities read in

 VTST: version 2.03d, (02/18/09)

 CHAIN: initializing optimizer
 
 OPT: Using VASP Conjugate-Gradient optimizer
 CHAIN: Read ICHAIN            0
 


--------------------------------------------------------------------------------------------------------


 ion  position               nearest neighbor table
   1  0.123  0.000  0.300-  97 2.32  99 2.33 106 2.39  76 2.47
   2  0.123  0.333  0.299-  97 2.32  98 2.33 107 2.41  77 2.46
   3  0.124  0.667  0.299-  98 2.33  99 2.33 108 2.36  78 2.46
   4  0.623  0.002  0.303- 100 2.32 102 2.35  79 2.37 109 2.41
   5  0.623  0.332  0.303- 100 2.33 101 2.34  80 2.35 110 2.43
   6  0.624  0.666  0.304- 101 2.33 102 2.35  81 2.38 111 2.43
   7  0.132  0.000  0.140-  85 2.28  87 2.28  76 2.36
   8  0.132  0.333  0.140-  85 2.28  86 2.28  77 2.36
   9  0.132  0.667  0.140-  87 2.28  86 2.28  78 2.36
  10  0.619  0.000  0.145- 103 2.22  90 2.37  88 2.37  79 2.38
  11  0.619  0.333  0.145- 104 2.22  88 2.37  89 2.37  80 2.38
  12  0.619  0.667  0.145- 105 2.22  90 2.37  89 2.37  81 2.39
  13  0.122  0.003  0.458-  91 2.30  82 2.35  93 2.37 106 2.38
  14  0.117  0.336  0.460-  83 2.35  91 2.36  92 2.36 107 2.41
  15  0.119  0.663  0.456-  84 2.28  92 2.31  93 2.36 108 2.37
  16  0.629  0.998  0.467- 112 2.20  96 2.33  94 2.36 109 2.50
  17  0.626  0.335  0.474- 114 2.14  95 2.37  94 2.37
  18  0.634  0.667  0.461-  95 2.26  96 2.27 111 2.36
  19  0.372  0.167  0.066-  85 2.35 104 2.35 103 2.35
  20  0.372  0.500  0.066-  86 2.35 104 2.35 105 2.35
  21  0.372  0.833  0.066-  87 2.35 105 2.35 103 2.35
  22  0.373  0.163  0.381- 109 2.30 110 2.35  91 2.36  97 2.41
  23  0.375  0.502  0.380- 111 2.33  92 2.33 110 2.34  98 2.41
  24  0.375  0.835  0.381- 109 2.31 111 2.34  93 2.36  99 2.42
  25  0.873  0.166  0.381- 106 2.33 107 2.33 100 2.37  94 2.40
  26  0.873  0.502  0.379- 108 2.32 107 2.34 101 2.35  95 2.40
  27  0.873  0.833  0.379- 108 2.33 106 2.33 102 2.34  96 2.41
  28  0.373  0.167  0.222-  80 2.34  79 2.34  97 2.37  85 2.38
  29  0.373  0.500  0.222-  80 2.34  81 2.34  98 2.36  86 2.39
  30  0.373  0.833  0.222-  81 2.34  79 2.34  99 2.37  87 2.38
  31  0.874  0.167  0.220-  88 2.33  77 2.33  76 2.33 100 2.43
  32  0.874  0.500  0.220-  89 2.33  78 2.33  77 2.33 101 2.44
  33  0.874  0.833  0.220-  90 2.33  78 2.33  76 2.33 102 2.43
  34  0.876  0.173  0.536-  94 2.26  83 2.27  82 2.41
  35  0.879  0.508  0.535-  84 2.28  95 2.32  83 2.32
  36  0.871  0.824  0.539-  84 2.24  96 2.33  82 2.43
  37  0.376  0.999  0.302-  99 2.33  79 2.34  97 2.35 109 2.44
  38  0.376  0.333  0.303-  97 2.34  98 2.34  80 2.36 110 2.40
  39  0.376  0.668  0.302-  99 2.32  81 2.34  98 2.35 111 2.49
  40  0.875  0.001  0.300- 100 2.32 102 2.32 106 2.38  76 2.48
  41  0.875  0.333  0.300- 100 2.31 101 2.32 107 2.37  77 2.49
  42  0.875  0.667  0.299- 102 2.33 101 2.33 108 2.36  78 2.46
  43  0.381  0.000  0.145- 103 2.22  87 2.37  85 2.37  79 2.38
  44  0.381  0.333  0.145- 104 2.22  85 2.37  86 2.37  80 2.38
  45  0.381  0.667  0.145- 105 2.22  87 2.37  86 2.37  81 2.39
  46  0.868  0.000  0.140-  88 2.28  90 2.28  76 2.36
  47  0.868  0.333  0.140-  88 2.28  89 2.28  77 2.36
  48  0.868  0.667  0.140-  90 2.28  89 2.28  78 2.36
  49  0.371  0.999  0.463- 112 2.31  93 2.32  91 2.35 109 2.41
  50  0.365  0.333  0.456-  91 2.27  92 2.29 110 2.30 114 2.79
  51  0.367  0.666  0.460-  92 2.27  93 2.27 111 2.34
  52  0.877  0.998  0.458-  96 2.31  94 2.33  82 2.37 106 2.37
  53  0.874  0.336  0.457-  94 2.30  95 2.31 107 2.37  83 2.43
  54  0.881  0.669  0.456-  84 2.29  96 2.30  95 2.34 108 2.36
  55  0.628  0.167  0.066-  88 2.35 104 2.35 103 2.35
  56  0.628  0.500  0.066-  89 2.35 104 2.35 105 2.35
  57  0.628  0.833  0.066-  90 2.35 105 2.35 103 2.35
  58  0.125  0.169  0.380- 107 2.32  91 2.34 106 2.36  97 2.38
  59  0.126  0.499  0.379- 107 2.33  92 2.34 108 2.36  98 2.36
  60  0.126  0.833  0.380- 108 2.33 106 2.34  93 2.36  99 2.38
  61  0.626  0.170  0.385- 110 2.31 109 2.36  94 2.38 100 2.49
  62  0.625  0.494  0.384- 110 2.30  95 2.35 111 2.38 101 2.46
  63  0.626  0.837  0.383- 109 2.30 111 2.35  96 2.37 102 2.44
  64  0.126  0.167  0.220-  85 2.33  77 2.33  76 2.33  97 2.40
  65  0.126  0.500  0.220-  86 2.33  78 2.33  77 2.33  98 2.41
  66  0.126  0.833  0.220-  87 2.33  78 2.33  76 2.33  99 2.42
  67  0.627  0.167  0.222-  80 2.34  79 2.34 100 2.38  88 2.39
  68  0.627  0.500  0.223-  81 2.34  80 2.34 101 2.37  89 2.40
  69  0.627  0.833  0.223-  81 2.34  79 2.34 102 2.36  90 2.40
  70  0.146  0.170  0.543- 115 2.13  91 2.40  83 2.49  82 2.51
  71  0.140  0.509  0.543- 117 2.12  84 2.38  92 2.46  83 2.50
  72  0.135  0.823  0.536-  84 2.25  93 2.29  82 2.45
  73  0.303  0.382  0.746- 118 1.22
  74  0.005  0.350  0.628-  75 1.95  83 2.23
  75  0.135  0.330  0.682- 118 1.66  74 1.95
  76  0.000  0.000  0.216-  31 2.33  33 2.33  64 2.33  66 2.33   7 2.36  46 2.36   1 2.47  40 2.48

  77  0.000  0.333  0.216-  31 2.33  64 2.33  32 2.33  65 2.33   8 2.36  47 2.36   2 2.46  41 2.49

  78  0.000  0.667  0.216-  33 2.33  66 2.33  65 2.33  32 2.33   9 2.36  48 2.36   3 2.46  42 2.46

  79  0.500  0.000  0.225-  67 2.34  28 2.34  30 2.34  37 2.34  69 2.34   4 2.37  43 2.38  10 2.38

  80  0.500  0.333  0.225-  28 2.34  67 2.34  29 2.34  68 2.34   5 2.35  38 2.36  11 2.38  44 2.38

  81  0.500  0.667  0.225-  69 2.34  30 2.34  68 2.34  39 2.34  29 2.34   6 2.38  45 2.39  12 2.39

  82  0.002  0.997  0.536-  13 2.35  52 2.37  34 2.41  36 2.43  72 2.45  70 2.51
  83  0.996  0.336  0.539-  74 2.23  34 2.27  35 2.32  14 2.35  53 2.43  70 2.49  71 2.50
  84  0.001  0.671  0.532-  36 2.24  72 2.25  35 2.28  15 2.28  54 2.29  71 2.38
  85  0.249  0.167  0.143-   8 2.28   7 2.28  64 2.33  19 2.35  44 2.37  43 2.37  28 2.38
  86  0.249  0.500  0.143-   8 2.28   9 2.28  65 2.33  20 2.35  45 2.37  44 2.37  29 2.39
  87  0.249  0.833  0.143-   9 2.28   7 2.28  66 2.33  21 2.35  45 2.37  43 2.37  30 2.38
  88  0.751  0.167  0.143-  47 2.28  46 2.28  31 2.33  55 2.35  11 2.37  10 2.37  67 2.39
  89  0.751  0.500  0.143-  47 2.28  48 2.28  32 2.33  56 2.35  11 2.37  12 2.37  68 2.40
  90  0.751  0.833  0.143-  48 2.28  46 2.28  33 2.33  57 2.35  12 2.37  10 2.37  69 2.40
  91  0.246  0.168  0.457-  50 2.27  13 2.30  58 2.34  49 2.35  14 2.36  22 2.36  70 2.40 115 3.27

  92  0.249  0.501  0.456-  51 2.27  50 2.29  15 2.31  23 2.33  59 2.34  14 2.36  71 2.46 117 3.21

  93  0.248  0.831  0.459-  51 2.27  72 2.29  49 2.32  15 2.36  60 2.36  24 2.36  13 2.37
  94  0.755  0.168  0.462-  34 2.26  53 2.30  52 2.33  16 2.36  17 2.37  61 2.38  25 2.40
  95  0.752  0.503  0.460-  18 2.26  53 2.31  35 2.32  54 2.34  62 2.35  17 2.37  26 2.40
  96  0.753  0.832  0.460-  18 2.27  54 2.30  52 2.31  16 2.33  36 2.33  63 2.37  27 2.41
  97  0.248  0.167  0.301-   1 2.32   2 2.32  38 2.34  37 2.35  28 2.37  58 2.38  64 2.40  22 2.41

  98  0.249  0.500  0.300-   3 2.33   2 2.33  38 2.34  39 2.35  59 2.36  29 2.36  23 2.41  65 2.41

  99  0.249  0.834  0.301-  39 2.32  37 2.33   3 2.33   1 2.33  30 2.37  60 2.38  66 2.42  24 2.42

 100  0.751  0.167  0.302-  41 2.31  40 2.32   4 2.32   5 2.33  25 2.37  67 2.38  31 2.43  61 2.49

 101  0.750  0.500  0.301-  41 2.32   6 2.33  42 2.33   5 2.34  26 2.35  68 2.37  32 2.44  62 2.46

 102  0.750  0.834  0.301-  40 2.32  42 2.33  27 2.34   6 2.35   4 2.35  69 2.36  33 2.43  63 2.44

 103  0.500  0.000  0.072-  10 2.22  43 2.22  21 2.35  19 2.35  55 2.35  57 2.35
 104  0.500  0.333  0.072-  11 2.22  44 2.22  19 2.35  55 2.35  20 2.35  56 2.35
 105  0.500  0.667  0.072-  12 2.22  45 2.22  21 2.35  57 2.35  56 2.35  20 2.35
 106  0.999  0.000  0.379-  25 2.33  27 2.33  60 2.34  58 2.36  52 2.37  13 2.38  40 2.38   1 2.39

 107  0.998  0.334  0.379-  58 2.32  59 2.33  25 2.33  26 2.34  53 2.37  41 2.37  14 2.41   2 2.41

 108  0.999  0.667  0.377-  26 2.32  27 2.33  60 2.33  59 2.36  42 2.36   3 2.36  54 2.36  15 2.37

 109  0.500  0.000  0.384-  63 2.30  22 2.30  24 2.31  61 2.36   4 2.41  49 2.41  37 2.44  16 2.50

 110  0.497  0.333  0.383-  50 2.30  62 2.30  61 2.31  23 2.34  22 2.35  38 2.40   5 2.43
 111  0.501  0.667  0.386-  23 2.33  51 2.34  24 2.34  63 2.35  18 2.36  62 2.38   6 2.43  39 2.49

 112  0.502  0.056  0.531-  16 2.20  49 2.31 113 2.62 115 2.76 114 3.34
 113  0.545  0.130  0.628- 112 2.62 115 2.72 116 2.80 114 3.24
 114  0.518  0.347  0.545-  17 2.14 116 2.68 117 2.70  50 2.79 115 2.98 113 3.24 112 3.34
 115  0.321  0.183  0.584-  70 2.13 113 2.72 112 2.76 114 2.98 117 3.01 116 3.05  91 3.27
 116  0.468  0.360  0.650- 118 2.37 114 2.68 117 2.68 113 2.80 115 3.05
 117  0.304  0.446  0.580-  71 2.12 116 2.68 114 2.70 115 3.01  92 3.21
 118  0.279  0.370  0.698-  73 1.22  75 1.66 116 2.37
 
  LATTYP: Found a simple orthorhombic cell.
 ALAT       =    10.7367820000
 B/A-ratio  =     1.0606601680
 C/A-ratio  =     2.3284444073
  
  Lattice vectors:
  
 A1 = (  10.7367820000,   0.0000000000,   0.0000000000)
 A2 = (   0.0000000000,  11.3880770000,   0.0000000000)
 A3 = (   0.0000000000,   0.0000000000,  25.0000000000)
 Subroutine PRICEL returns:
 Original cell was already a primitive cell.
 

Analysis of symmetry for initial positions (statically):

 Routine SETGRP: Setting up the symmetry group for a 
 simple orthorhombic supercell.


 Subroutine GETGRP returns: Found  1 space group operations
 (whereof  1 operations were pure point group operations)
 out of a pool of  8 trial point group operations.


The static configuration has the point symmetry C_1 .

Analysis of symmetry for dynamics (positions and initial velocities):

 Subroutine DYNSYM returns: Found  1 space group operations
 (whereof  1 operations were pure point group operations)
 out of a pool of  1 trial space group operations
 (whereof  1 operations were pure point group operations)
 and found also     1 'primitive' translations


The dynamic configuration has the point symmetry C_1 .

Analysis of constrained symmetry for selective dynamics:

 Subroutine DYNSYM returns: Found  1 space group operations
 (whereof  1 operations were pure point group operations)
 out of a pool of  1 trial space group operations
 (whereof  1 operations were pure point group operations)
 and found also     1 'primitive' translations


The constrained configuration has the point symmetry C_1 .

Analysis of magnetic symmetry:

 Subroutine MAGSYM returns: Found  1 space group operations
 (whereof  1 operations were pure point group operations)
 out of a pool of  1 trial space group operations
 (whereof  1 operations were pure point group operations)
 and found also     1 'primitive' translations


The magnetic configuration has the point symmetry C_1 .
 
 
 KPOINTS: mesh auto                               

Automatic generation of k-mesh.
 
 Subroutine IBZKPT returns following result:
 ===========================================
 
 Found      1 irreducible k-points:
 
 Following reciprocal coordinates:
            Coordinates               Weight
  0.000000  0.000000  0.000000      1.000000
 
 Following cartesian coordinates:
            Coordinates               Weight
  0.000000  0.000000  0.000000      1.000000
 


--------------------------------------------------------------------------------------------------------




 Dimension of arrays:
   k-Points           NKPTS =      1   number of bands    NBANDS=    630
   number of dos      NEDOS =    301   number of ions     NIONS =    118
   non local maximal  LDIM  =      8   non local SUM 2l+1 LMDIM =     32
   total plane-waves  NPLWV = 784000
   max r-space proj   IRMAX =   3977   max aug-charges    IRDMAX=  10953
   dimension x,y,z NGX =    70 NGY =   70 NGZ =  160
   dimension x,y,z NGXF=   120 NGYF=  128 NGZF=  280
   support grid    NGXF=   120 NGYF=  128 NGZF=  280
   ions per type =              75  36   6   1
 NGX,Y,Z   is equivalent  to a cutoff of  10.84, 10.22, 10.64 a.u.
 NGXF,Y,Z  is equivalent  to a cutoff of  18.58, 18.69, 18.62 a.u.


 I would recommend the setting:
   dimension x,y,z NGX =    66 NGY =   69 NGZ =  153
 SYSTEM =  anatas134                               
 POSCAR =  CeO2bulk                                

 Startparameter for this run:
   NWRITE =      2    write-flag & timer
   PREC   = high      medium, high low
   ISTART =      0    job   : 0-new  1-cont  2-samecut
   ICHARG =      2    charge: 1-file 2-atom 10-const
   ISPIN  =      2    spin polarized calculation?
   LNONCOLLINEAR =      F non collinear calculations
   LSORBIT =      F    spin-orbit coupling
   INIWAV =      1    electr: 0-lowe 1-rand  2-diag
   LASPH  =      F    aspherical Exc in radial PAW
   METAGGA=      F    non-selfconsistent MetaGGA calc.

 Electronic Relaxation 1
   ENCUT  =  350.0 eV  25.72 Ry    5.07 a.u.  16.38 17.37 38.14*2*pi/ulx,y,z
   ENINI  =  350.0     initial cutoff
   ENAUG  =  659.4 eV  augmentation charge cutoff
   NELM   =    100;   NELMIN=  2; NELMDL= -5     # of ELM steps 
   EDIFF  = 0.1E-04   stopping-criterion for ELM
   LREAL  =      T    real-space projection
   LCOMPAT=      F    compatible to vasp.4.4
   LREAL_COMPAT= F    compatible to vasp.4.5.1-3
   GGA_COMPAT  = T    GGA compatible to vasp.4.4-vasp.4.6
   LMAXPAW     = -100 max onsite density
   LMAXMIX     =    6 max onsite mixed and CHGCAR
   VOSKOWN=      1    Vosko Wilk Nusair interpolation
   ROPT   =   -0.00040  -0.00040  -0.00040  -0.00040
 Ionic relaxation
   EDIFFG = -.5E-01   stopping-criterion for IOM
   NSW    =    200    number of steps for IOM
   NBLOCK =      1;   KBLOCK =    200    inner block; outer block 
   IBRION =      2    ionic relax: 0-MD 1-quasi-New 2-CG
   NFREE  =     10    steps in history (QN), initial steepest desc. (CG)
   ISIF   =      2    stress and relaxation
   IWAVPR =     11    prediction:  0-non 1-charg 2-wave 3-comb
   ISYM   =      2    0-nonsym 1-usesym 2-fastsym
   LCORR  =      T    Harris-Foulkes like correction to forces

   POTIM  =   0.20    time-step for ionic-motion
   TEIN   =    0.0    initial temperature
   TEBEG  =    0.0;   TEEND  =   0.0 temperature during run
   SMASS  =  -3.00    Nose mass-parameter (am)
   estimated Nose-frequenzy (Omega)   =  0.10E-29 period in steps =****** mass=  -0.263E-26a.u.
   NPACO  =    256;   APACO  = 16.0  distance and # of slots for P.C.
   PSTRESS=    0.0 pullay stress

  Mass of Ions in am
   POMASS =  16.00140.12196.97 12.01
  Ionic Valenz
   ZVAL   =   6.00 12.00 11.00  4.00
  Atomic Wigner-Seitz radii
   RWIGS  =  -1.00 -1.00 -1.00 -1.00
   NELECT =     952.0000    total number of electrons
   NUPDOWN=      -1.0000    fix difference up-down

 DOS related values:
   EMIN   =  10.00;   EMAX   =-10.00  energy-range for DOS
   ISMEAR =     1;   SIGMA  =   0.05  broadening in eV -4-tet -1-fermi 0-gaus

 Electronic relaxation 2 (details)
   IALGO  =     68    algorithm
   LDIAG  =      T    sub-space diagonalisation
   IMIX   =      4    mixing-type and parameters
     AMIX     =   0.30;   BMIX     =  0.00
     AMIX_MAG =   0.80;   BMIX_MAG =  0.00
     AMIN     =   0.10
     WC   =   100.;   INIMIX=   1;  MIXPRE=   1

 Intra band minimization:
   WEIMIN = 0.0010     energy-eigenvalue tresh-hold
   EBREAK =  0.40E-08  absolut break condition
   DEPER  =   0.30     relativ break condition  

   TIME   =   0.10     timestep for ELM

  volume/ion in A,a.u.               =      25.90       174.82
  Fermi-wavevector in a.u.,eV,Ry     =   1.109683 16.754167  1.231397

 Second variation
   LSECVAR=     F    do a second variation
 
 Write flags
   LWAVE  =      T    write WAVECAR
   LCHARG =      T    write CHGCAR
   LVTOT  =      F    write LOCPOT, local potential
   LELF   =      F    write electronic localiz. function (ELF)
   LORBIT =      0    0 simple, 1 ext, 2 COOP (PROOUT)


 Dipole corrections
   IDIPOL =      0    1-x, 2-y, 3-z
   LDIPOL =      F    correct potential

 LDA+U is selected, type is set to LDAUTYPE =  2
   angular momentum for each species LDAUL =    -1    3   -1   -1
   U (eV)           for each species LDAUU =   0.0  5.5  0.0  0.0
   J (eV)           for each species LDAUJ =   0.0  0.5  0.0  0.0


--------------------------------------------------------------------------------------------------------


 conjugate gradient relaxation of ions
   using selective dynamics as specified on POSCAR
 charge density will be updated during run
 spin polarized calculation
 RMM-DIIS sequential band-by-band and
  variant of blocked Davidson during initial phase
 performe sub-space diagonalisation
    before iterative eigenvector-optimisation
 modified Broyden-mixing scheme, WC =      100.0
 initial mixing is a Kerker type mixing with AMIX =  0.3000 and BMIX =      0.0002
 Hartree-type preconditioning will be used
 using additional bands          154
 real space projection scheme for non local part
 use partial core corrections
 calculate Harris-corrections to forces 
   (improved forces if not selfconsistent)
 use gradient corrections 
 use of overlap-Matrix (Vanderbilt PP)
 Methfessel and Paxton  Order N= 1 SIGMA  =   0.05


--------------------------------------------------------------------------------------------------------


  energy-cutoff  :      350.00
  volume of cell :     3056.78
      direct lattice vectors                 reciprocal lattice vectors
    10.736782000  0.000000000  0.000000000     0.093137776  0.000000000  0.000000000
     0.000000000 11.388077000  0.000000000     0.000000000  0.087811138  0.000000000
     0.000000000  0.000000000 25.000000000     0.000000000  0.000000000  0.040000000

  length of vectors
    10.736782000 11.388077000 25.000000000     0.093137776  0.087811138  0.040000000


 
 k-points in units of 2pi/SCALE and weight: mesh auto                               
   0.00000000  0.00000000  0.00000000       1.000
 
 k-points in reciprocal lattice and weights: mesh auto                               
   0.00000000  0.00000000  0.00000000       1.000
 
 position of ions in fractional coordinates (direct lattice) 
   0.12336000  0.00023000  0.29968000
   0.12328000  0.33332000  0.29883000
   0.12374000  0.66690000  0.29891000
   0.62341000  0.00210000  0.30338000
   0.62318000  0.33214000  0.30265000
   0.62393000  0.66595000  0.30432000
   0.13228000  0.00000000  0.14044000
   0.13228000  0.33333000  0.14044000
   0.13228000  0.66667000  0.14044000
   0.61925000  0.00000000  0.14463000
   0.61925000  0.33333000  0.14463000
   0.61925000  0.66667000  0.14463000
   0.12240000  0.00279000  0.45764000
   0.11678000  0.33555000  0.46043000
   0.11941000  0.66297000  0.45607000
   0.62895000  0.99818000  0.46703000
   0.62620000  0.33518000  0.47360000
   0.63359000  0.66705000  0.46141000
   0.37195000  0.16667000  0.06566000
   0.37195000  0.50000000  0.06566000
   0.37195000  0.83333000  0.06566000
   0.37299000  0.16270000  0.38052000
   0.37461000  0.50177000  0.38009000
   0.37476000  0.83504000  0.38149000
   0.87261000  0.16644000  0.38059000
   0.87255000  0.50181000  0.37941000
   0.87299000  0.83340000  0.37901000
   0.37271000  0.16686000  0.22230000
   0.37312000  0.49972000  0.22246000
   0.37293000  0.83345000  0.22212000
   0.87432000  0.16667000  0.21990000
   0.87432000  0.50000000  0.21990000
   0.87432000  0.83333000  0.21990000
   0.87615000  0.17289000  0.53640000
   0.87899000  0.50753000  0.53533000
   0.87055000  0.82352000  0.53882000
   0.37601000  0.99949000  0.30198000
   0.37583000  0.33254000  0.30289000
   0.37572000  0.66790000  0.30229000
   0.87516000  0.00065000  0.29951000
   0.87499000  0.33317000  0.29992000
   0.87514000  0.66679000  0.29878000
   0.38075000  0.00000000  0.14463000
   0.38075000  0.33333000  0.14463000
   0.38075000  0.66667000  0.14463000
   0.86772000  0.00000000  0.14044000
   0.86772000  0.33333000  0.14044000
   0.86772000  0.66667000  0.14044000
   0.37067000  0.99898000  0.46267000
   0.36496000  0.33261000  0.45563000
   0.36674000  0.66632000  0.45993000
   0.87668000  0.99805000  0.45793000
   0.87386000  0.33620000  0.45713000
   0.88088000  0.66914000  0.45629000
   0.62805000  0.16667000  0.06566000
   0.62805000  0.50000000  0.06566000
   0.62805000  0.83333000  0.06566000
   0.12492000  0.16938000  0.37961000
   0.12610000  0.49858000  0.37861000
   0.12625000  0.83336000  0.37991000
   0.62554000  0.16962000  0.38535000
   0.62546000  0.49416000  0.38390000
   0.62584000  0.83678000  0.38278000
   0.12568000  0.16667000  0.21990000
   0.12568000  0.50000000  0.21990000
   0.12568000  0.83333000  0.21990000
   0.62720000  0.16657000  0.22250000
   0.62697000  0.50026000  0.22291000
   0.62696000  0.83319000  0.22311000
   0.14622000  0.17019000  0.54345000
   0.13963000  0.50899000  0.54263000
   0.13495000  0.82296000  0.53619000
   0.30281000  0.38201000  0.74573000
   0.00471000  0.34957000  0.62810000
   0.13475000  0.33031000  0.68205000
   0.00000000  0.00000000  0.21606000
   0.00000000  0.33333000  0.21606000
   0.00000000  0.66667000  0.21606000
   0.49978000  0.00025000  0.22488000
   0.50012000  0.33299000  0.22487000
   0.49975000  0.66681000  0.22539000
   0.00165000  0.99729000  0.53621000
   0.99641000  0.33631000  0.53903000
   0.00136000  0.67061000  0.53165000
   0.24905000  0.16667000  0.14325000
   0.24905000  0.50000000  0.14325000
   0.24905000  0.83333000  0.14325000
   0.75095000  0.16667000  0.14325000
   0.75095000  0.50000000  0.14325000
   0.75095000  0.83333000  0.14325000
   0.24565000  0.16822000  0.45731000
   0.24875000  0.50096000  0.45619000
   0.24776000  0.83134000  0.45875000
   0.75541000  0.16787000  0.46228000
   0.75233000  0.50309000  0.46034000
   0.75324000  0.83155000  0.46035000
   0.24769000  0.16658000  0.30056000
   0.24896000  0.49999000  0.30039000
   0.24940000  0.83364000  0.30092000
   0.75100000  0.16696000  0.30160000
   0.75004000  0.49973000  0.30141000
   0.75049000  0.83382000  0.30139000
   0.50000000  0.00000000  0.07207000
   0.50000000  0.33333000  0.07207000
   0.50000000  0.66667000  0.07207000
   0.99871000  0.00012000  0.37878000
   0.99770000  0.33409000  0.37880000
   0.99917000  0.66718000  0.37658000
   0.49991000  0.00012000  0.38370000
   0.49727000  0.33253000  0.38349000
   0.50085000  0.66722000  0.38601000
   0.50243000  0.05617000  0.53086000
   0.54544000  0.12973000  0.62838000
   0.51812000  0.34694000  0.54540000
   0.32097000  0.18278000  0.58379000
   0.46840000  0.35986000  0.65014000
   0.30425000  0.44648000  0.57984000
   0.27895000  0.37034000  0.69830000
 
 position of ions in cartesian coordinates  (Angst):
   1.32448943  0.00261926  7.49200000
   1.32363048  3.79587383  7.47075000
   1.32856940  7.59470855  7.47275000
   6.69341727  0.02391496  7.58450000
   6.69094781  3.78243589  7.56625000
   6.69900039  7.58388988  7.60800000
   1.42026152  0.00000000  3.51100000
   1.42026152  3.79598771  3.51100000
   1.42026152  7.59208929  3.51100000
   6.64875225  0.00000000  3.61575000
   6.64875225  3.79598771  3.61575000
   6.64875225  7.59208929  3.61575000
   1.31418212  0.03177273 11.44100000
   1.25384140  3.82126924 11.51075000
   1.28207914  7.54995341 11.40175000
   6.75289904 11.36735070 11.67575000
   6.72337289  3.81705565 11.84000000
   6.80271771  7.59641676 11.53525000
   3.99354606  1.89805079  1.64150000
   3.99354606  5.69403850  1.64150000
   3.99354606  9.49002621  1.64150000
   4.00471232  1.85284013  9.51300000
   4.02210591  5.71419540  9.50225000
   4.02371642  9.50949982  9.53725000
   9.36902334  1.89543154  9.51475000
   9.36837913  5.71465092  9.48525000
   9.37310332  9.49082337  9.47525000
   4.00170602  1.90021453  5.55750000
   4.00610810  5.69084984  5.56150000
   4.00406811  9.49139278  5.55300000
   9.38738324  1.89805079  5.49750000
   9.38738324  5.69403850  5.49750000
   9.38738324  9.49002621  5.49750000
   9.40703155  1.96888463 13.41000000
   9.43752401  5.77979072 13.38325000
   9.34690557  9.37830917 13.47050000
   4.03713740 11.38226908  7.54950000
   4.03520478  3.78699113  7.57225000
   4.03402373  7.60609663  7.55725000
   9.39640214  0.00740225  7.48775000
   9.39457688  3.79416561  7.49800000
   9.39618740  7.59345586  7.46950000
   4.08802975  0.00000000  3.61575000
   4.08802975  3.79598771  3.61575000
   4.08802975  7.59208929  3.61575000
   9.31652048  0.00000000  3.51100000
   9.31652048  3.79598771  3.51100000
   9.31652048  7.59208929  3.51100000
   3.97980298 11.37646116 11.56675000
   3.91849596  3.78778829 11.39075000
   3.93760743  7.58810347 11.49825000
   9.41272204 11.36587025 11.44825000
   9.38244432  3.82867149 11.42825000
   9.45781653  7.62021784 11.40725000
   6.74323594  1.89805079  1.64150000
   6.74323594  5.69403850  1.64150000
   6.74323594  9.49002621  1.64150000
   1.34123881  1.92891248  9.49025000
   1.35390821  5.67786743  9.46525000
   1.35551873  9.49036785  9.49775000
   6.71628661  1.93164562  9.63375000
   6.71542767  5.62753213  9.59750000
   6.71950765  9.52931507  9.56950000
   1.34939876  1.89805079  5.49750000
   1.34939876  5.69403850  5.49750000
   1.34939876  9.49002621  5.49750000
   6.73410967  1.89691199  5.56250000
   6.73164021  5.69699940  5.57275000
   6.73153284  9.48843188  5.57775000
   1.56993226  1.93813682 13.58625000
   1.49917687  5.79641731 13.56575000
   1.44892873  9.37193185 13.40475000
   3.25120496  4.35035929 18.64325000
   0.05057024  3.98093008 15.70250000
   1.44678137  3.76159571 17.05125000
   0.00000000  0.00000000  5.40150000
   0.00000000  3.79598771  5.40150000
   0.00000000  7.59208929  5.40150000
   5.36602891  0.00284702  5.62200000
   5.36967941  3.79211576  5.62175000
   5.36570680  7.59368362  5.63475000
   0.01771569 11.35721531 13.40525000
  10.69823695  3.82992418 13.47575000
   0.01460202  7.63695832 13.29125000
   2.67399556  1.89805079  3.58125000
   2.67399556  5.69403850  3.58125000
   2.67399556  9.49002621  3.58125000
   8.06278644  1.89805079  3.58125000
   8.06278644  5.69403850  3.58125000
   8.06278644  9.49002621  3.58125000
   2.63749050  1.91570231 11.43275000
   2.67077452  5.70497105 11.40475000
   2.66014511  9.46736393 11.46875000
   8.11067249  1.91171649 11.55700000
   8.07760320  5.72922766 11.50850000
   8.08737367  9.46975543 11.50875000
   2.65939353  1.89702587  7.51400000
   2.67302925  5.69392462  7.50975000
   2.67775343  9.49355651  7.52300000
   8.06332328  1.90135334  7.54000000
   8.05301597  5.69096372  7.53525000
   8.05784752  9.49560636  7.53475000
   5.36839100  0.00000000  1.80175000
   5.36839100  3.79598771  1.80175000
   5.36839100  7.59208929  1.80175000
  10.72293155  0.00136657  9.46950000
  10.71208740  3.80464264  9.47000000
  10.72787047  7.59789721  9.41450000
   5.36742469  0.00136657  9.59250000
   5.33907959  3.78687724  9.58725000
   5.37751726  7.59835274  9.65025000
   5.39448138  0.63966829 13.27150000
   5.85627037  1.47737523 15.70950000
   5.56294149  3.95097943 13.63500000
   3.44618492  2.08151271 14.59475000
   5.02910869  4.09811339 16.25350000
   3.26666592  5.08454862 14.49600000
   2.99502534  4.21746044 17.45750000
 


--------------------------------------------------------------------------------------------------------


 k-point  1 :  0.00000.00000.0000  plane waves:  45443

 maximum and minimum number of plane-waves per node :  45443 45443

 maximum number of plane-waves:  45443
 maximal index in each direction: 
   IXMAX= 16   IYMAX= 17   IZMAX= 38
   IXMIN=-16   IYMIN=-17   IZMIN=-38

 NGX is ok and might be reduce to  66
 NGY is ok and might be reduce to  70
 NGZ is ok and might be reduce to 154

 real space projection operators:
  total allocation   :  42211.44 KBytes
  max/ min on nodes  :  42211.44  42211.44


 parallel 3dFFT wavefunction:
    minimum data exchange during FFTs selected (reduces bandwidth)
 parallel 3dFFT charge:
    minimum data exchange during FFTs selected (reduces bandwidth)

 For storing wavefunctions  916.13 MBYTES are necessary
 For predicting wavefunctions 1996.07 MBYTES are necessary
Broyden mixing: mesh for mixing (old mesh)
   NGX = 33   NGY = 35   NGZ = 77
  (NGX  =120   NGY  =128   NGZ  =280)
 gives a total of  88935 points
 initial charge density was supplied:
 charge density of overlapping atoms calculated
 number of electron  952.0000000 magnetization  118.0000000
 keeping initial charge density in first step


--------------------------------------------------------------------------------------------------------


 Maximum index for non-local projection operator         3828
 Maximum index for augmentation-charges          843 (set IRDMAX)


--------------------------------------------------------------------------------------------------------


 First call to EWALD:  gamma=   0.122
 Maximum number of real-space cells 4x 3x 2
 Maximum number of reciprocal cells 2x 2x 4

    FEWALD:  VPU time    0.19: CPU time    0.19


----------------------------------------- Iteration    1(   1)  ---------------------------------------


    POTLOK:  VPU time   10.91: CPU time   10.92
    SETDIJ:  VPU time    0.40: CPU time    0.40
    EDDAV :  VPU time  311.43: CPU time  311.50
    DOS   :  VPU time    0.00: CPU time    0.00
    ------------------------------------------
      LOOP:  VPU time  322.82: CPU time  322.90

 eigenvalue-minimisations  :  2576
 total energy-change (2. order) : 0.1140413E+05  (-0.3379456E+05)
 number of electron  952.0000000 magnetization  118.0000000
 augmentation part   952.0000000 magnetization  118.0000000

 Free energy of the ion-electron system (eV)
  ---------------------------------------------------
  alpha Z        PSCENC =      2847.48764424
  Ewald energy   TEWEN  =    219509.69805909
  -1/2 Hartree   DENC   =   -291098.52252622
  -V(xc)+E(xc)   XCENC  =      2383.09429492
  PAW double counting   =     45882.72438357   -45101.68124385
  entropy T*S    EENTRO =         0.00122328
  eigenvalues    EBANDS =       530.53357887
  atomic energy  EATOM  =     76450.79955823
  ---------------------------------------------------
  free energy    TOTEN  =     11404.13497214 eV

  energy without entropy =    11404.13374886  energy(sigma->0) =    11404.13456438


--------------------------------------------------------------------------------------------------------




----------------------------------------- Iteration    1(   2)  ---------------------------------------


    EDDAV :  VPU time  367.65: CPU time  367.73
    DOS   :  VPU time    0.00: CPU time    0.00
    ------------------------------------------
      LOOP:  VPU time  367.72: CPU time  367.81

 eigenvalue-minimisations  :  3108
 total energy-change (2. order) :-0.8881238E+04  (-0.8095752E+04)
 number of electron  952.0000000 magnetization  118.0000000
 augmentation part   952.0000000 magnetization  118.0000000

 Free energy of the ion-electron system (eV)
  ---------------------------------------------------
  alpha Z        PSCENC =      2847.48764424
  Ewald energy   TEWEN  =    219509.69805909
  -1/2 Hartree   DENC   =   -291098.52252622
  -V(xc)+E(xc)   XCENC  =      2383.09429492
  PAW double counting   =     45882.72438357   -45101.68124385
  entropy T*S    EENTRO =        -0.00305233
  eigenvalues    EBANDS =     -8350.70016580
  atomic energy  EATOM  =     76450.79955823
  ---------------------------------------------------
  free energy    TOTEN  =      2522.89695186 eV

  energy without entropy =     2522.90000419  energy(sigma->0) =     2522.89796930


--------------------------------------------------------------------------------------------------------




----------------------------------------- Iteration    1(   3)  ---------------------------------------


    EDDAV :  VPU time  371.17: CPU time  371.26
    DOS   :  VPU time    0.00: CPU time    0.00
    ------------------------------------------
      LOOP:  VPU time  371.25: CPU time  371.34

 eigenvalue-minimisations  :  3038
 total energy-change (2. order) :-0.3291447E+04  (-0.3153356E+04)
 number of electron  952.0000000 magnetization  118.0000000
 augmentation part   952.0000000 magnetization  118.0000000

 Free energy of the ion-electron system (eV)
  ---------------------------------------------------
  alpha Z        PSCENC =      2847.48764424
  Ewald energy   TEWEN  =    219509.69805909
  -1/2 Hartree   DENC   =   -291098.52252622
  -V(xc)+E(xc)   XCENC  =      2383.09429492
  PAW double counting   =     45882.72438357   -45101.68124385
  entropy T*S    EENTRO =        -0.00197475
  eigenvalues    EBANDS =    -11642.14823728
  atomic energy  EATOM  =     76450.79955823
  ---------------------------------------------------
  free energy    TOTEN  =      -768.55004204 eV

  energy without entropy =     -768.54806729  energy(sigma->0) =     -768.54938379


--------------------------------------------------------------------------------------------------------




----------------------------------------- Iteration    1(   4)  ---------------------------------------


    EDDAV :  VPU time  424.03: CPU time  424.13
    DOS   :  VPU time    0.00: CPU time    0.00
    ------------------------------------------
      LOOP:  VPU time  424.11: CPU time  424.21

 eigenvalue-minimisations  :  3640
 total energy-change (2. order) :-0.3457369E+03  (-0.3405941E+03)
 number of electron  952.0000000 magnetization  118.0000000
 augmentation part   952.0000000 magnetization  118.0000000

 Free energy of the ion-electron system (eV)
  ---------------------------------------------------
  alpha Z        PSCENC =      2847.48764424
  Ewald energy   TEWEN  =    219509.69805909
  -1/2 Hartree   DENC   =   -291098.52252622
  -V(xc)+E(xc)   XCENC  =      2383.09429492
  PAW double counting   =     45882.72438357   -45101.68124385
  entropy T*S    EENTRO =        -0.00140717
  eigenvalues    EBANDS =    -11987.88566336
  atomic energy  EATOM  =     76450.79955823
  ---------------------------------------------------
  free energy    TOTEN  =     -1114.28690054 eV

  energy without entropy =    -1114.28549337  energy(sigma->0) =    -1114.28643149


--------------------------------------------------------------------------------------------------------




----------------------------------------- Iteration    1(   5)  ---------------------------------------


    EDDAV :  VPU time  461.29: CPU time  461.40
    DOS   :  VPU time    0.00: CPU time    0.00
    CHARGE:  VPU time   16.42: CPU time   16.42
    MIXING:  VPU time    0.08: CPU time    0.08
    ------------------------------------------
      LOOP:  VPU time  477.87: CPU time  477.99

 eigenvalue-minimisations  :  3962
 total energy-change (2. order) :-0.1444836E+02  (-0.1418342E+02)
 number of electron  951.9999958 magnetization   31.3249344
 augmentation part    26.0068574 magnetization   25.8844618

 Broyden mixing:
  rms(total) = 0.10125E+02    rms(broyden)= 0.10123E+02
  rms(prec ) = 0.10810E+02
  weight for this iteration     100.00

 Free energy of the ion-electron system (eV)
  ---------------------------------------------------
  alpha Z        PSCENC =      2847.48764424
  Ewald energy   TEWEN  =    219509.69805909
  -1/2 Hartree   DENC   =   -291098.52252622
  -V(xc)+E(xc)   XCENC  =      2383.09429492
  PAW double counting   =     45882.72438357   -45101.68124385
  entropy T*S    EENTRO =        -0.00461481
  eigenvalues    EBANDS =    -12002.33081355
  atomic energy  EATOM  =     76450.79955823
  ---------------------------------------------------
  free energy    TOTEN  =     -1128.73525838 eV

  energy without entropy =    -1128.73064357  energy(sigma->0) =    -1128.73372011


--------------------------------------------------------------------------------------------------------




----------------------------------------- Iteration    1(   6)  ---------------------------------------


    POTLOK:  VPU time   11.00: CPU time   11.00
    SETDIJ:  VPU time    0.42: CPU time    0.42
    EDDIAG:  VPU time   49.77: CPU time   49.79
  RMM-DIIS:  VPU time  172.04: CPU time  172.12
    ORTHCH:  VPU time    7.69: CPU time    7.69
    DOS   :  VPU time    0.00: CPU time    0.00
    CHARGE:  VPU time   16.81: CPU time   16.82
    MIXING:  VPU time    0.07: CPU time    0.07
    ------------------------------------------
      LOOP:  VPU time  257.87: CPU time  257.97

 eigenvalue-minimisations  :  3315
 total energy-change (2. order) : 0.5516967E+02  (-0.2155400E+03)
 number of electron  951.9999959 magnetization   27.2611183
 augmentation part    53.9791134 magnetization   15.9416571

 Broyden mixing:
  rms(total) = 0.12446E+02    rms(broyden)= 0.12442E+02
  rms(prec ) = 0.16687E+02
  weight for this iteration     100.00

 eigenvalues of (default mixing * dielectric matrix)
  average eigenvalue GAMMA=   0.4891
  0.4891

 Free energy of the ion-electron system (eV)
  ---------------------------------------------------
  alpha Z        PSCENC =      2847.48764424
  Ewald energy   TEWEN  =    219509.69805909
  -1/2 Hartree   DENC   =   -294166.31152994
  -V(xc)+E(xc)   XCENC  =      2447.58180561
  PAW double counting   =     47453.46968904   -46646.70224460
  entropy T*S    EENTRO =         0.00025146
  eigenvalues    EBANDS =     -8969.58881788
  atomic energy  EATOM  =     76450.79955823
  ---------------------------------------------------
  free energy    TOTEN  =     -1073.56558475 eV

  energy without entropy =    -1073.56583621  energy(sigma->0) =    -1073.56566857


--------------------------------------------------------------------------------------------------------




----------------------------------------- Iteration    1(   7)  ---------------------------------------


    POTLOK:  VPU time   10.94: CPU time   10.95
    SETDIJ:  VPU time    0.41: CPU time    0.42
    EDDIAG:  VPU time   49.48: CPU time   49.49
  RMM-DIIS:  VPU time  197.55: CPU time  197.60
    ORTHCH:  VPU time    8.11: CPU time    8.12
    DOS   :  VPU time    0.00: CPU time    0.00
    CHARGE:  VPU time   16.67: CPU time   16.67
    MIXING:  VPU time    0.09: CPU time    0.09
    ------------------------------------------
      LOOP:  VPU time  283.31: CPU time  283.38

 eigenvalue-minimisations  :  3815
 total energy-change (2. order) :-0.2785331E+04  (-0.3550382E+03)
 number of electron  952.0000130 magnetization   23.0365846
 augmentation part   126.1001931 magnetization   25.8820324

 Broyden mixing:
  rms(total) = 0.28028E+02    rms(broyden)= 0.28023E+02
  rms(prec ) = 0.43596E+02
  weight for this iteration     100.00

 eigenvalues of (default mixing * dielectric matrix)
  average eigenvalue GAMMA=   0.2950
  0.5023  0.0878

 Free energy of the ion-electron system (eV)
  ---------------------------------------------------
  alpha Z        PSCENC =      2847.48764424
  Ewald energy   TEWEN  =    219509.69805909
  -1/2 Hartree   DENC   =   -292183.88550672
  -V(xc)+E(xc)   XCENC  =      2437.91394242
  PAW double counting   =     47997.54003347   -47210.14963822
  entropy T*S    EENTRO =        -0.00206679
  eigenvalues    EBANDS =    -13708.29818483
  atomic energy  EATOM  =     76450.79955823
  ---------------------------------------------------
  free energy    TOTEN  =     -3858.89615910 eV

  energy without entropy =    -3858.89409231  energy(sigma->0) =    -3858.89547017


--------------------------------------------------------------------------------------------------------




----------------------------------------- Iteration    1(   8)  ---------------------------------------


    POTLOK:  VPU time   11.01: CPU time   11.02
    SETDIJ:  VPU time    0.41: CPU time    0.41
    EDDIAG:  VPU time   49.76: CPU time   49.77
  RMM-DIIS:  VPU time  141.10: CPU time  141.13
    ORTHCH:  VPU time    7.67: CPU time    7.67
    DOS   :  VPU time    0.00: CPU time    0.00
    CHARGE:  VPU time   16.71: CPU time   16.71
    MIXING:  VPU time    0.08: CPU time    0.08
    ------------------------------------------
      LOOP:  VPU time  226.79: CPU time  226.85

 eigenvalue-minimisations  :  2676
 total energy-change (2. order) : 0.2803110E+04  (-0.1315585E+03)
 number of electron  951.9999982 magnetization   10.7459269
 augmentation part    21.4789542 magnetization   10.5919523

 Broyden mixing:
  rms(total) = 0.48956E+01    rms(broyden)= 0.48815E+01
  rms(prec ) = 0.55697E+01
  weight for this iteration     100.00

 eigenvalues of (default mixing * dielectric matrix)
  average eigenvalue GAMMA=   0.4652
  1.0029  0.0911  0.3014

 Free energy of the ion-electron system (eV)
  ---------------------------------------------------
  alpha Z        PSCENC =      2847.48764424
  Ewald energy   TEWEN  =    219509.69805909
  -1/2 Hartree   DENC   =   -293585.43843057
  -V(xc)+E(xc)   XCENC  =      2429.51181759
  PAW double counting   =     48416.65745665   -47657.44758641
  entropy T*S    EENTRO =        -0.01309730
  eigenvalues    EBANDS =     -9467.04201899
  atomic energy  EATOM  =     76450.79955823
  ---------------------------------------------------
  free energy    TOTEN  =     -1055.78659747 eV

  energy without entropy =    -1055.77350017  energy(sigma->0) =    -1055.78223171


--------------------------------------------------------------------------------------------------------




----------------------------------------- Iteration    1(   9)  ---------------------------------------


    POTLOK:  VPU time   10.95: CPU time   10.95
    SETDIJ:  VPU time    0.41: CPU time    0.41
    EDDIAG:  VPU time   50.00: CPU time   50.02
  RMM-DIIS:  VPU time  170.08: CPU time  170.12
    ORTHCH:  VPU time    7.75: CPU time    7.75
    DOS   :  VPU time    0.00: CPU time    0.00
    CHARGE:  VPU time   16.44: CPU time   16.45
    MIXING:  VPU time    0.08: CPU time    0.08
    ------------------------------------------
      LOOP:  VPU time  255.77: CPU time  255.83

 eigenvalue-minimisations  :  3254
 total energy-change (2. order) : 0.6625394E+02  (-0.2013746E+02)
 number of electron  951.9999978 magnetization    8.4173744
 augmentation part    20.7253987 magnetization    8.8102328

 Broyden mixing:
  rms(total) = 0.47138E+01    rms(broyden)= 0.47112E+01
  rms(prec ) = 0.52289E+01
  weight for this iteration     100.00

 eigenvalues of (default mixing * dielectric matrix)
  average eigenvalue GAMMA=   0.4539
  1.0670  0.3295  0.3295  0.0895

 Free energy of the ion-electron system (eV)
  ---------------------------------------------------
  alpha Z        PSCENC =      2847.48764424
  Ewald energy   TEWEN  =    219509.69805909
  -1/2 Hartree   DENC   =   -293437.01663580
  -V(xc)+E(xc)   XCENC  =      2433.30900990
  PAW double counting   =     48831.69667856   -48062.66974575
  entropy T*S    EENTRO =         0.00179290
  eigenvalues    EBANDS =     -9562.83902281
  atomic energy  EATOM  =     76450.79955823
  ---------------------------------------------------
  free energy    TOTEN  =      -989.53266145 eV

  energy without entropy =     -989.53445434  energy(sigma->0) =     -989.53325908


--------------------------------------------------------------------------------------------------------




----------------------------------------- Iteration    1(  10)  ---------------------------------------


    POTLOK:  VPU time   10.96: CPU time   10.96
    SETDIJ:  VPU time    0.42: CPU time    0.42
    EDDIAG:  VPU time   49.43: CPU time   49.44
  RMM-DIIS:  VPU time  168.50: CPU time  168.54
    ORTHCH:  VPU time    7.76: CPU time    7.76
    DOS   :  VPU time    0.00: CPU time    0.00
    CHARGE:  VPU time   16.29: CPU time   16.29
    MIXING:  VPU time    0.08: CPU time    0.08
    ------------------------------------------
      LOOP:  VPU time  253.48: CPU time  253.55

 eigenvalue-minimisations  :  3306
 total energy-change (2. order) : 0.2299293E+02  (-0.4312723E+01)
 number of electron  951.9999983 magnetization    4.1084083
 augmentation part    20.9495592 magnetization    4.3986830

 Broyden mixing:
  rms(total) = 0.38393E+01    rms(broyden)= 0.38374E+01
  rms(prec ) = 0.41740E+01
  weight for this iteration     100.00

 eigenvalues of (default mixing * dielectric matrix)
  average eigenvalue GAMMA=   0.4955
  1.2466  0.4464  0.4464  0.0897  0.2487

 Free energy of the ion-electron system (eV)
  ---------------------------------------------------
  alpha Z        PSCENC =      2847.48764424
  Ewald energy   TEWEN  =    219509.69805909
  -1/2 Hartree   DENC   =   -293413.51725508
  -V(xc)+E(xc)   XCENC  =      2436.49491190
  PAW double counting   =     48987.80084344   -48214.48630829
  entropy T*S    EENTRO =         0.00457956
  eigenvalues    EBANDS =     -9570.82176558
  atomic energy  EATOM  =     76450.79955823
  ---------------------------------------------------
  free energy    TOTEN  =      -966.53973250 eV

  energy without entropy =     -966.54431206  energy(sigma->0) =     -966.54125902


--------------------------------------------------------------------------------------------------------




----------------------------------------- Iteration    1(  11)  ---------------------------------------


    POTLOK:  VPU time   10.91: CPU time   10.91
    SETDIJ:  VPU time    0.42: CPU time    0.42
    EDDIAG:  VPU time   49.59: CPU time   49.60
  RMM-DIIS:  VPU time  168.24: CPU time  168.31
    ORTHCH:  VPU time    7.63: CPU time    7.64
    DOS   :  VPU time    0.00: CPU time    0.00
    CHARGE:  VPU time   16.78: CPU time   16.78
    MIXING:  VPU time    0.09: CPU time    0.09
    ------------------------------------------
      LOOP:  VPU time  253.73: CPU time  253.83

 eigenvalue-minimisations  :  3278
 total energy-change (2. order) : 0.1650050E+02  (-0.3951280E+01)
 number of electron  951.9999988 magnetization    2.1630056
 augmentation part    19.8495623 magnetization    1.9052620

 Broyden mixing:
  rms(total) = 0.35175E+01    rms(broyden)= 0.35149E+01
  rms(prec ) = 0.41855E+01
  weight for this iteration     100.00

 eigenvalues of (default mixing * dielectric matrix)
  average eigenvalue GAMMA=   0.5518
  1.2779  0.9873  0.0897  0.3762  0.2899  0.2899

 Free energy of the ion-electron system (eV)
  ---------------------------------------------------
  alpha Z        PSCENC =      2847.48764424
  Ewald energy   TEWEN  =    219509.69805909
  -1/2 Hartree   DENC   =   -293353.48905561
  -V(xc)+E(xc)   XCENC  =      2443.69811696
  PAW double counting   =     49316.41272222   -48534.76812017
  entropy T*S    EENTRO =        -0.00402307
  eigenvalues    EBANDS =     -9629.87413368
  atomic energy  EATOM  =     76450.79955823
  ---------------------------------------------------
  free energy    TOTEN  =      -950.03923179 eV

  energy without entropy =     -950.03520872  energy(sigma->0) =     -950.03789077


--------------------------------------------------------------------------------------------------------




----------------------------------------- Iteration    1(  12)  ---------------------------------------


    POTLOK:  VPU time   11.08: CPU time   11.08
    SETDIJ:  VPU time    0.42: CPU time    0.42
    EDDIAG:  VPU time   52.12: CPU time   52.14
  RMM-DIIS:  VPU time  161.59: CPU time  161.65
    ORTHCH:  VPU time    7.89: CPU time    7.89
    DOS   :  VPU time    0.00: CPU time    0.00
    CHARGE:  VPU time   20.46: CPU time   20.47
    MIXING:  VPU time    0.10: CPU time    0.10
    ------------------------------------------
      LOOP:  VPU time  253.72: CPU time  253.80

 eigenvalue-minimisations  :  3186
 total energy-change (2. order) : 0.2895843E+02  (-0.5537116E+01)
 number of electron  951.9999980 magnetization    1.8835583
 augmentation part    20.0995351 magnetization    1.8350011

 Broyden mixing:
  rms(total) = 0.21826E+01    rms(broyden)= 0.21802E+01
  rms(prec ) = 0.23563E+01
  weight for this iteration     100.00

 eigenvalues of (default mixing * dielectric matrix)
  average eigenvalue GAMMA=   0.5643
  1.2401  1.2401  0.4917  0.0897  0.2997  0.2997  0.2890

 Free energy of the ion-electron system (eV)
  ---------------------------------------------------
  alpha Z        PSCENC =      2847.48764424
  Ewald energy   TEWEN  =    219509.69805909
  -1/2 Hartree   DENC   =   -293386.40487216
  -V(xc)+E(xc)   XCENC  =      2448.98233431
  PAW double counting   =     49633.09505845   -48841.32976488
  entropy T*S    EENTRO =         0.00829577
  eigenvalues    EBANDS =     -9583.41711057
  atomic energy  EATOM  =     76450.79955823
  ---------------------------------------------------
  free energy    TOTEN  =      -921.08079753 eV

  energy without entropy =     -921.08909330  energy(sigma->0) =     -921.08356279


--------------------------------------------------------------------------------------------------------




----------------------------------------- Iteration    1(  13)  ---------------------------------------


    POTLOK:  VPU time   11.00: CPU time   11.00
    SETDIJ:  VPU time    0.41: CPU time    0.41
    EDDIAG:  VPU time   48.92: CPU time   48.93
  RMM-DIIS:  VPU time  170.29: CPU time  170.34
    ORTHCH:  VPU time    7.63: CPU time    7.63
    DOS   :  VPU time    0.00: CPU time    0.00
    CHARGE:  VPU time   20.06: CPU time   20.07
    MIXING:  VPU time    0.11: CPU time    0.11
    ------------------------------------------
      LOOP:  VPU time  258.48: CPU time  258.56

 eigenvalue-minimisations  :  3293
 total energy-change (2. order) : 0.6000493E+01  (-0.1481072E+01)
 number of electron  951.9999977 magnetization    1.6229695
 augmentation part    21.1117180 magnetization    1.9024000

 Broyden mixing:
  rms(total) = 0.17778E+01    rms(broyden)= 0.17731E+01
  rms(prec ) = 0.19648E+01
  weight for this iteration     100.00

 eigenvalues of (default mixing * dielectric matrix)
  average eigenvalue GAMMA=   0.5239
  1.2786  1.2786  0.4416  0.0897  0.3054  0.3054  0.2461  0.2461

 Free energy of the ion-electron system (eV)
  ---------------------------------------------------
  alpha Z        PSCENC =      2847.48764424
  Ewald energy   TEWEN  =    219509.69805909
  -1/2 Hartree   DENC   =   -293385.28790186
  -V(xc)+E(xc)   XCENC  =      2450.21067965
  PAW double counting   =     49700.90129594   -48902.02423133
  entropy T*S    EENTRO =         0.00642381
  eigenvalues    EBANDS =     -9586.87183192
  atomic energy  EATOM  =     76450.79955823
  ---------------------------------------------------
  free energy    TOTEN  =      -915.08030416 eV

  energy without entropy =     -915.08672797  energy(sigma->0) =     -915.08244543


--------------------------------------------------------------------------------------------------------




----------------------------------------- Iteration    1(  14)  ---------------------------------------


    POTLOK:  VPU time   10.96: CPU time   10.96
    SETDIJ:  VPU time    0.40: CPU time    0.41
    EDDIAG:  VPU time   49.41: CPU time   49.42
  RMM-DIIS:  VPU time  176.22: CPU time  176.38
    ORTHCH:  VPU time    7.63: CPU time    7.63
    DOS   :  VPU time    0.00: CPU time    0.00
    CHARGE:  VPU time   19.19: CPU time   19.19
    MIXING:  VPU time    0.15: CPU time    0.15
    ------------------------------------------
      LOOP:  VPU time  264.02: CPU time  264.21

 eigenvalue-minimisations  :  3463
 total energy-change (2. order) : 0.1026959E+01  (-0.2760569E+00)
 number of electron  951.9999981 magnetization    1.1855587
 augmentation part    20.0329379 magnetization    1.1721035

 Broyden mixing:
  rms(total) = 0.15351E+01    rms(broyden)= 0.15318E+01
  rms(prec ) = 0.16495E+01
  weight for this iteration     100.00

 eigenvalues of (default mixing * dielectric matrix)
  average eigenvalue GAMMA=   0.5610
  1.3725  1.3725  0.5651  0.5651  0.3544  0.2869  0.2869  0.0897  0.1560

 Free energy of the ion-electron system (eV)
  ---------------------------------------------------
  alpha Z        PSCENC =      2847.48764424
  Ewald energy   TEWEN  =    219509.69805909
  -1/2 Hartree   DENC   =   -293437.44681051
  -V(xc)+E(xc)   XCENC  =      2450.58490033
  PAW double counting   =     49717.14379069   -48916.13372864
  entropy T*S    EENTRO =         0.00726117
  eigenvalues    EBANDS =     -9536.19401968
  atomic energy  EATOM  =     76450.79955823
  ---------------------------------------------------
  free energy    TOTEN  =      -914.05334509 eV

  energy without entropy =     -914.06060626  energy(sigma->0) =     -914.05576548


--------------------------------------------------------------------------------------------------------




----------------------------------------- Iteration    1(  15)  ---------------------------------------


    POTLOK:  VPU time   11.09: CPU time   11.10
    SETDIJ:  VPU time    0.41: CPU time    0.41
    EDDIAG:  VPU time   48.94: CPU time   48.96
  RMM-DIIS:  VPU time  140.40: CPU time  140.46
    ORTHCH:  VPU time    7.63: CPU time    7.63
    DOS   :  VPU time    0.00: CPU time    0.00
    CHARGE:  VPU time   19.58: CPU time   19.59
    MIXING:  VPU time    0.13: CPU time    0.13
    ------------------------------------------
      LOOP:  VPU time  228.25: CPU time  228.33

 eigenvalue-minimisations  :  2716
 total energy-change (2. order) : 0.1068699E+01  (-0.5409700E+00)
 number of electron  951.9999989 magnetization    0.8194680
 augmentation part    23.0182671 magnetization    1.2391646

 Broyden mixing:
  rms(total) = 0.15845E+01    rms(broyden)= 0.15816E+01
  rms(prec ) = 0.20025E+01
  weight for this iteration     100.00

 eigenvalues of (default mixing * dielectric matrix)
  average eigenvalue GAMMA=   0.5275
  1.3582  1.3582  0.6080  0.6080  0.3616  0.2889  0.2889  0.0897  0.2029  0.1108

 Free energy of the ion-electron system (eV)
  ---------------------------------------------------
  alpha Z        PSCENC =      2847.48764424
  Ewald energy   TEWEN  =    219509.69805909
  -1/2 Hartree   DENC   =   -293310.02965077
  -V(xc)+E(xc)   XCENC  =      2451.25097703
  PAW double counting   =     49747.89991522   -48938.22756766
  entropy T*S    EENTRO =         0.00428383
  eigenvalues    EBANDS =     -9671.86786526
  atomic energy  EATOM  =     76450.79955823
  ---------------------------------------------------
  free energy    TOTEN  =      -912.98464605 eV

  energy without entropy =     -912.98892987  energy(sigma->0) =     -912.98607399


--------------------------------------------------------------------------------------------------------




----------------------------------------- Iteration    1(  16)  ---------------------------------------


    POTLOK:  VPU time   10.93: CPU time   10.94
    SETDIJ:  VPU time    0.41: CPU time    0.41
    EDDIAG:  VPU time   48.86: CPU time   48.88
  RMM-DIIS:  VPU time  164.60: CPU time  164.65
    ORTHCH:  VPU time    8.02: CPU time    8.02
    DOS   :  VPU time    0.00: CPU time    0.00
    CHARGE:  VPU time   20.80: CPU time   20.81
    MIXING:  VPU time    0.15: CPU time    0.15
    ------------------------------------------
      LOOP:  VPU time  253.83: CPU time  253.91

 eigenvalue-minimisations  :  3061
 total energy-change (2. order) : 0.8746384E+00  (-0.1887242E+00)
 number of electron  951.9999987 magnetization   -0.1715854
 augmentation part    22.4182783 magnetization    0.1365631

 Broyden mixing:
  rms(total) = 0.13587E+01    rms(broyden)= 0.13580E+01
  rms(prec ) = 0.15935E+01
  weight for this iteration     100.00

 eigenvalues of (default mixing * dielectric matrix)
  average eigenvalue GAMMA=   0.5535
  1.3822  1.3822  0.8451  0.8451  0.3937  0.2927  0.2927  0.3048  0.0897  0.1304
  0.1304

 Free energy of the ion-electron system (eV)
  ---------------------------------------------------
  alpha Z        PSCENC =      2847.48764424
  Ewald energy   TEWEN  =    219509.69805909
  -1/2 Hartree   DENC   =   -293292.20872078
  -V(xc)+E(xc)   XCENC  =      2451.34084742
  PAW double counting   =     49748.00470517   -48936.74220085
  entropy T*S    EENTRO =         0.00560482
  eigenvalues    EBANDS =     -9690.49550501
  atomic energy  EATOM  =     76450.79955823
  ---------------------------------------------------
  free energy    TOTEN  =      -912.11000768 eV

  energy without entropy =     -912.11561250  energy(sigma->0) =     -912.11187595


--------------------------------------------------------------------------------------------------------




----------------------------------------- Iteration    1(  17)  ---------------------------------------


    POTLOK:  VPU time   11.10: CPU time   11.11
    SETDIJ:  VPU time    0.42: CPU time    0.42
    EDDIAG:  VPU time   52.91: CPU time   52.92
  RMM-DIIS:  VPU time  150.11: CPU time  150.22
    ORTHCH:  VPU time    8.08: CPU time    8.09
    DOS   :  VPU time    0.00: CPU time    0.00
    CHARGE:  VPU time   21.11: CPU time   21.14
    MIXING:  VPU time    0.16: CPU time    0.16
    ------------------------------------------
      LOOP:  VPU time  243.95: CPU time  244.12

 eigenvalue-minimisations  :  2709
 total energy-change (2. order) : 0.1297148E+01  (-0.3827506E+00)
 number of electron  951.9999985 magnetization   -0.8239632
 augmentation part    22.5724470 magnetization   -0.4980349

 Broyden mixing:
  rms(total) = 0.11135E+01    rms(broyden)= 0.11128E+01
  rms(prec ) = 0.13233E+01
  weight for this iteration     100.00

 eigenvalues of (default mixing * dielectric matrix)
  average eigenvalue GAMMA=   0.5716
  1.4689  1.4689  0.9898  0.9898  0.3958  0.2910  0.2910  0.3049  0.3049  0.0897
  0.1513  0.1129

 Free energy of the ion-electron system (eV)
  ---------------------------------------------------
  alpha Z        PSCENC =      2847.48764424
  Ewald energy   TEWEN  =    219509.69805909
  -1/2 Hartree   DENC   =   -293436.28471573
  -V(xc)+E(xc)   XCENC  =      2451.62086051
  PAW double counting   =     49763.69905813   -48945.37953875
  entropy T*S    EENTRO =         0.00014758
  eigenvalues    EBANDS =     -9552.45393252
  atomic energy  EATOM  =     76450.79955823
  ---------------------------------------------------
  free energy    TOTEN  =      -910.81285922 eV

  energy without entropy =     -910.81300680  energy(sigma->0) =     -910.81290841


--------------------------------------------------------------------------------------------------------




----------------------------------------- Iteration    1(  18)  ---------------------------------------


    POTLOK:  VPU time   11.11: CPU time   11.12
    SETDIJ:  VPU time    0.41: CPU time    0.42
    EDDIAG:  VPU time   52.39: CPU time   52.42
  RMM-DIIS:  VPU time  163.44: CPU time  163.51
    ORTHCH:  VPU time    8.06: CPU time    8.06
    DOS   :  VPU time    0.00: CPU time    0.00
    CHARGE:  VPU time   20.45: CPU time   20.46
    MIXING:  VPU time    0.17: CPU time    0.17
    ------------------------------------------
      LOOP:  VPU time  256.10: CPU time  256.22

 eigenvalue-minimisations  :  2925
 total energy-change (2. order) :-0.2635926E+00  (-0.6521905E+00)
 number of electron  951.9999993 magnetization   -1.1786990
 augmentation part    23.9754202 magnetization   -0.5939533

 Broyden mixing:
  rms(total) = 0.23148E+01    rms(broyden)= 0.23139E+01
  rms(prec ) = 0.26670E+01
  weight for this iteration     100.00

 eigenvalues of (default mixing * dielectric matrix)
  average eigenvalue GAMMA=   0.5569
  1.5195  1.5195  1.0390  1.0390  0.3761  0.3761  0.3590  0.2887  0.2887  0.0897
  0.1487  0.0979  0.0979

 Free energy of the ion-electron system (eV)
  ---------------------------------------------------
  alpha Z        PSCENC =      2847.48764424
  Ewald energy   TEWEN  =    219509.69805909
  -1/2 Hartree   DENC   =   -293487.03305650
  -V(xc)+E(xc)   XCENC  =      2452.32269935
  PAW double counting   =     49790.85453561   -48966.23496401
  entropy T*S    EENTRO =        -0.00151268
  eigenvalues    EBANDS =     -9508.96941510
  atomic energy  EATOM  =     76450.79955823
  ---------------------------------------------------
  free energy    TOTEN  =      -911.07645177 eV

  energy without entropy =     -911.07493910  energy(sigma->0) =     -911.07594755


--------------------------------------------------------------------------------------------------------




----------------------------------------- Iteration    1(  19)  ---------------------------------------


    POTLOK:  VPU time   11.11: CPU time   11.12
    SETDIJ:  VPU time    0.41: CPU time    0.41
    EDDIAG:  VPU time   53.64: CPU time   53.66
  RMM-DIIS:  VPU time  171.47: CPU time  171.53
    ORTHCH:  VPU time    8.05: CPU time    8.05
    DOS   :  VPU time    0.00: CPU time    0.00
    CHARGE:  VPU time   20.98: CPU time   20.99
    MIXING:  VPU time    0.18: CPU time    0.18
    ------------------------------------------
      LOOP:  VPU time  265.92: CPU time  266.01

 eigenvalue-minimisations  :  3054
 total energy-change (2. order) : 0.6018291E-01  (-0.3046955E+00)
 number of electron  951.9999999 magnetization   -1.9118998
 augmentation part    24.2969618 magnetization   -1.2915040

 Broyden mixing:
  rms(total) = 0.17305E+01    rms(broyden)= 0.17294E+01
  rms(prec ) = 0.21039E+01
  weight for this iteration     100.00

 eigenvalues of (default mixing * dielectric matrix)
  average eigenvalue GAMMA=   0.5560
  1.5258  1.5258  1.1526  1.1526  0.4605  0.4605  0.3423  0.2879  0.2879  0.0897
  0.1521  0.1371  0.1371  0.0720

 Free energy of the ion-electron system (eV)
  ---------------------------------------------------
  alpha Z        PSCENC =      2847.48764424
  Ewald energy   TEWEN  =    219509.69805909
  -1/2 Hartree   DENC   =   -293487.21253531
  -V(xc)+E(xc)   XCENC  =      2452.77355344
  PAW double counting   =     49806.97318316   -48980.05454948
  entropy T*S    EENTRO =        -0.00105292
  eigenvalues    EBANDS =     -9511.48012933
  atomic energy  EATOM  =     76450.79955823
  ---------------------------------------------------
  free energy    TOTEN  =      -911.01626887 eV

  energy without entropy =     -911.01521595  energy(sigma->0) =     -911.01591789


--------------------------------------------------------------------------------------------------------




----------------------------------------- Iteration    1(  20)  ---------------------------------------


    POTLOK:  VPU time   11.12: CPU time   11.12
    SETDIJ:  VPU time    0.41: CPU time    0.41
    EDDIAG:  VPU time   53.19: CPU time   53.21
  RMM-DIIS:  VPU time  163.59: CPU time  163.65
    ORTHCH:  VPU time    8.07: CPU time    8.07
    DOS   :  VPU time    0.00: CPU time    0.00
    CHARGE:  VPU time   21.12: CPU time   21.16
    MIXING:  VPU time    0.20: CPU time    0.20
    ------------------------------------------
      LOOP:  VPU time  257.78: CPU time  257.90

 eigenvalue-minimisations  :  2961
 total energy-change (2. order) : 0.2220872E+00  (-0.2198577E+00)
 number of electron  951.9999995 magnetization   -2.1296646
[...]

 Free energy of the ion-electron system (eV)
  ---------------------------------------------------
  alpha Z        PSCENC =      2847.48764424
  Ewald energy   TEWEN  =    219675.52964435
  -1/2 Hartree   DENC   =   -293881.28005466
  -V(xc)+E(xc)   XCENC  =      2459.48780409
  PAW double counting   =     50092.97944695   -49256.32332692
  entropy T*S    EENTRO =        -0.01139811
  eigenvalues    EBANDS =     -9301.71328178
  atomic energy  EATOM  =     76450.79955823
  ---------------------------------------------------
  free energy    TOTEN  =      -913.04396361 eV

  energy without entropy =     -913.03256550  energy(sigma->0) =     -913.04016424


--------------------------------------------------------------------------------------------------------




----------------------------------------- Iteration   20(  17)  ---------------------------------------


    POTLOK:  VPU time   10.99: CPU time   11.00
    SETDIJ:  VPU time    0.40: CPU time    0.40
    EDDIAG:  VPU time   53.77: CPU time   53.78
  RMM-DIIS:  VPU time  117.33: CPU time  117.46
    ORTHCH:  VPU time    7.70: CPU time    7.70
    DOS   :  VPU time    0.00: CPU time    0.00
    CHARGE:  VPU time   17.11: CPU time   17.11
    MIXING:  VPU time    0.21: CPU time    0.21
    ------------------------------------------
      LOOP:  VPU time  207.55: CPU time  207.71

 eigenvalue-minimisations  :  1859
 total energy-change (2. order) :-0.5269982E-04  (-0.2513733E-04)
 number of electron  951.9999897 magnetization   -1.2643287
 augmentation part    22.7826609 magnetization   -0.7291057

 Broyden mixing:
  rms(total) = 0.22210E-02    rms(broyden)= 0.20925E-02
  rms(prec ) = 0.21715E-02
  weight for this iteration     100.00

 eigenvalues of (default mixing * dielectric matrix)
  average eigenvalue GAMMA=   1.1421
  4.5473  3.0566  2.2302  1.0953  1.0953  1.1385  0.8907  0.8907  0.0843  0.2929
  0.2929  0.5628  0.5628  0.5971  0.5148  0.4208

 Free energy of the ion-electron system (eV)
  ---------------------------------------------------
  alpha Z        PSCENC =      2847.48764424
  Ewald energy   TEWEN  =    219675.52964435
  -1/2 Hartree   DENC   =   -293881.20033086
  -V(xc)+E(xc)   XCENC  =      2459.48746475
  PAW double counting   =     50092.94399068   -49256.28751285
  entropy T*S    EENTRO =        -0.01140080
  eigenvalues    EBANDS =     -9301.79307406
  atomic energy  EATOM  =     76450.79955823
  ---------------------------------------------------
  free energy    TOTEN  =      -913.04401631 eV

  energy without entropy =     -913.03261551  energy(sigma->0) =     -913.04021604


--------------------------------------------------------------------------------------------------------




----------------------------------------- Iteration   20(  18)  ---------------------------------------


    POTLOK:  VPU time   11.00: CPU time   11.01
    SETDIJ:  VPU time    0.41: CPU time    0.41
    EDDIAG:  VPU time   54.20: CPU time   54.21
  RMM-DIIS:  VPU time  114.76: CPU time  114.89
    ORTHCH:  VPU time    7.70: CPU time    7.70
    DOS   :  VPU time    0.00: CPU time    0.00
    CHARGE:  VPU time   16.91: CPU time   16.91
    MIXING:  VPU time    0.23: CPU time    0.23
    ------------------------------------------
      LOOP:  VPU time  205.25: CPU time  205.41

 eigenvalue-minimisations  :  1824
 total energy-change (2. order) :-0.3455387E-04  (-0.3107808E-04)
 number of electron  951.9999897 magnetization   -1.2634121
 augmentation part    22.7809797 magnetization   -0.7315351

 Broyden mixing:
  rms(total) = 0.42819E-02    rms(broyden)= 0.42765E-02
  rms(prec ) = 0.44892E-02
  weight for this iteration     100.00

 eigenvalues of (default mixing * dielectric matrix)
  average eigenvalue GAMMA=   1.1771
  5.2204  3.0891  2.3152  1.0980  1.0769  1.0769  1.0613  1.0613  0.0843  0.2929
  0.2929  0.7219  0.5990  0.5990  0.4981  0.4981  0.4245

 Free energy of the ion-electron system (eV)
  ---------------------------------------------------
  alpha Z        PSCENC =      2847.48764424
  Ewald energy   TEWEN  =    219675.52964435
  -1/2 Hartree   DENC   =   -293881.14382668
  -V(xc)+E(xc)   XCENC  =      2459.48674499
  PAW double counting   =     50092.91290898   -49256.25640573
  entropy T*S    EENTRO =        -0.01141495
  eigenvalues    EBANDS =     -9301.84890429
  atomic energy  EATOM  =     76450.79955823
  ---------------------------------------------------
  free energy    TOTEN  =      -913.04405086 eV

  energy without entropy =     -913.03263591  energy(sigma->0) =     -913.04024588


--------------------------------------------------------------------------------------------------------




----------------------------------------- Iteration   20(  19)  ---------------------------------------


    POTLOK:  VPU time   11.00: CPU time   11.01
    SETDIJ:  VPU time    0.41: CPU time    0.41
    EDDIAG:  VPU time   54.22: CPU time   54.23
  RMM-DIIS:  VPU time  105.63: CPU time  105.76
    ORTHCH:  VPU time    7.70: CPU time    7.70
    DOS   :  VPU time    0.00: CPU time    0.00
    CHARGE:  VPU time   17.19: CPU time   17.20
    MIXING:  VPU time    0.24: CPU time    0.24
    ------------------------------------------
      LOOP:  VPU time  196.44: CPU time  196.60

 eigenvalue-minimisations  :  1652
 total energy-change (2. order) :-0.3342473E-04  (-0.1719899E-04)
 number of electron  951.9999897 magnetization   -1.2679762
 augmentation part    22.7801366 magnetization   -0.7378905

 Broyden mixing:
  rms(total) = 0.55574E-02    rms(broyden)= 0.55532E-02
  rms(prec ) = 0.58396E-02
  weight for this iteration     100.00

 eigenvalues of (default mixing * dielectric matrix)
  average eigenvalue GAMMA=   1.2731
  4.3838  3.5930  3.1874  2.1748  1.0853  1.0853  1.1309  1.1070  1.1070  0.0843
  0.2929  0.2929  0.7568  0.5604  0.5604  0.5842  0.5065  0.4221

 Free energy of the ion-electron system (eV)
  ---------------------------------------------------
  alpha Z        PSCENC =      2847.48764424
  Ewald energy   TEWEN  =    219675.52964435
  -1/2 Hartree   DENC   =   -293881.12340255
  -V(xc)+E(xc)   XCENC  =      2459.48647253
  PAW double counting   =     50092.89300224   -49256.23627951
  entropy T*S    EENTRO =        -0.01141983
  eigenvalues    EBANDS =     -9301.86930399
  atomic energy  EATOM  =     76450.79955823
  ---------------------------------------------------
  free energy    TOTEN  =      -913.04408429 eV

  energy without entropy =     -913.03266446  energy(sigma->0) =     -913.04027768


--------------------------------------------------------------------------------------------------------




----------------------------------------- Iteration   20(  20)  ---------------------------------------


    POTLOK:  VPU time   11.01: CPU time   11.01
    SETDIJ:  VPU time    0.42: CPU time    0.42
    EDDIAG:  VPU time   54.24: CPU time   54.25
  RMM-DIIS:  VPU time  119.16: CPU time  119.29
    ORTHCH:  VPU time    7.69: CPU time    7.69
    DOS   :  VPU time    0.00: CPU time    0.00
    CHARGE:  VPU time   16.90: CPU time   16.90
    MIXING:  VPU time    0.26: CPU time    0.26
    ------------------------------------------
      LOOP:  VPU time  209.70: CPU time  209.86

 eigenvalue-minimisations  :  1924
 total energy-change (2. order) : 0.1419526E-03  (-0.1647331E-03)
 number of electron  951.9999897 magnetization   -1.2656476
 augmentation part    22.7765871 magnetization   -0.7411007

 Broyden mixing:
  rms(total) = 0.14764E-01    rms(broyden)= 0.14730E-01
  rms(prec ) = 0.15497E-01
  weight for this iteration     100.00

 eigenvalues of (default mixing * dielectric matrix)
  average eigenvalue GAMMA=   1.1314
  3.3836  3.3836  2.1672  1.4664  1.4664  1.1131  1.1131  1.1441  1.1441  0.0843
  1.0222  0.2929  0.2929  0.8016  0.5571  0.5571  0.5778  0.5059  0.4223

 Free energy of the ion-electron system (eV)
  ---------------------------------------------------
  alpha Z        PSCENC =      2847.48764424
  Ewald energy   TEWEN  =    219675.52964435
  -1/2 Hartree   DENC   =   -293881.26550261
  -V(xc)+E(xc)   XCENC  =      2459.48710194
  PAW double counting   =     50092.96262685   -49256.30664330
  entropy T*S    EENTRO =        -0.01138766
  eigenvalues    EBANDS =     -9301.72698438
  atomic energy  EATOM  =     76450.79955823
  ---------------------------------------------------
  free energy    TOTEN  =      -913.04394234 eV

  energy without entropy =     -913.03255468  energy(sigma->0) =     -913.04014645


--------------------------------------------------------------------------------------------------------




----------------------------------------- Iteration   20(  21)  ---------------------------------------


    POTLOK:  VPU time   10.99: CPU time   10.99
    SETDIJ:  VPU time    0.41: CPU time    0.41
    EDDIAG:  VPU time   54.25: CPU time   54.26
  RMM-DIIS:  VPU time  118.80: CPU time  118.92
    ORTHCH:  VPU time    7.69: CPU time    7.69
    DOS   :  VPU time    0.00: CPU time    0.00
    CHARGE:  VPU time   17.01: CPU time   17.01
    MIXING:  VPU time    0.27: CPU time    0.27
    ------------------------------------------
      LOOP:  VPU time  209.47: CPU time  209.61

 eigenvalue-minimisations  :  1861
 total energy-change (2. order) :-0.1056374E-03  (-0.5135237E-04)
 number of electron  951.9999897 magnetization   -1.2649102
 augmentation part    22.7825644 magnetization   -0.7283215

 Broyden mixing:
  rms(total) = 0.55890E-02    rms(broyden)= 0.55465E-02
  rms(prec ) = 0.58929E-02
  weight for this iteration     100.00

 eigenvalues of (default mixing * dielectric matrix)
  average eigenvalue GAMMA=   1.2703
  4.3127  4.3127  2.5524  2.2241  2.2241  1.1118  1.1118  0.9333  0.9333  1.0204
  0.0843  0.2929  0.2929  0.7020  0.7020  0.5510  0.5510  0.5659  0.5056  0.4222

 Free energy of the ion-electron system (eV)
  ---------------------------------------------------
  alpha Z        PSCENC =      2847.48764424
  Ewald energy   TEWEN  =    219675.52964435
  -1/2 Hartree   DENC   =   -293881.21079166
  -V(xc)+E(xc)   XCENC  =      2459.48695993
  PAW double counting   =     50092.93047216   -49256.27395801
  entropy T*S    EENTRO =        -0.01132497
  eigenvalues    EBANDS =     -9301.78225225
  atomic energy  EATOM  =     76450.79955823
  ---------------------------------------------------
  free energy    TOTEN  =      -913.04404797 eV

  energy without entropy =     -913.03272300  energy(sigma->0) =     -913.04027298


--------------------------------------------------------------------------------------------------------




----------------------------------------- Iteration   20(  22)  ---------------------------------------


    POTLOK:  VPU time   11.02: CPU time   11.02
    SETDIJ:  VPU time    0.41: CPU time    0.41
    EDDIAG:  VPU time   53.28: CPU time   53.29
  RMM-DIIS:  VPU time  111.35: CPU time  111.48
    ORTHCH:  VPU time    7.70: CPU time    7.70
    DOS   :  VPU time    0.00: CPU time    0.00
    CHARGE:  VPU time   16.73: CPU time   16.73
    MIXING:  VPU time    0.29: CPU time    0.29
    ------------------------------------------
      LOOP:  VPU time  200.82: CPU time  200.98

 eigenvalue-minimisations  :  1758
 total energy-change (2. order) :-0.9764811E-04  (-0.1252260E-03)
 number of electron  951.9999897 magnetization   -1.2629477
 augmentation part    22.7796165 magnetization   -0.7340703

 Broyden mixing:
  rms(total) = 0.70857E-02    rms(broyden)= 0.70652E-02
  rms(prec ) = 0.74284E-02
  weight for this iteration     100.00

 eigenvalues of (default mixing * dielectric matrix)
  average eigenvalue GAMMA=   1.4588
  6.7142  6.7142  2.8710  1.9514  1.9514  1.1873  1.1873  1.0572  0.0843  0.8331
  0.8331  0.7227  0.7227  0.2929  0.2929  0.6458  0.5489  0.5489  0.5633  0.4902
  0.4218

 Free energy of the ion-electron system (eV)
  ---------------------------------------------------
  alpha Z        PSCENC =      2847.48764424
  Ewald energy   TEWEN  =    219675.52964435
  -1/2 Hartree   DENC   =   -293881.18127439
  -V(xc)+E(xc)   XCENC  =      2459.48712287
  PAW double counting   =     50092.90283083   -49256.24620382
  entropy T*S    EENTRO =        -0.01143333
  eigenvalues    EBANDS =     -9301.81203460
  atomic energy  EATOM  =     76450.79955823
  ---------------------------------------------------
  free energy    TOTEN  =      -913.04414562 eV

  energy without entropy =     -913.03271230  energy(sigma->0) =     -913.04033451


--------------------------------------------------------------------------------------------------------




----------------------------------------- Iteration   20(  23)  ---------------------------------------


    POTLOK:  VPU time   10.99: CPU time   10.99
    SETDIJ:  VPU time    0.41: CPU time    0.41
    EDDIAG:  VPU time   53.31: CPU time   53.33
  RMM-DIIS:  VPU time  111.97: CPU time  112.08
    ORTHCH:  VPU time    8.02: CPU time    8.02
    DOS   :  VPU time    0.00: CPU time    0.00
    CHARGE:  VPU time   16.46: CPU time   16.47
    MIXING:  VPU time    0.31: CPU time    0.31
    ------------------------------------------
      LOOP:  VPU time  201.52: CPU time  201.65

 eigenvalue-minimisations  :  1768
 total energy-change (2. order) :-0.1204779E-03  (-0.1548876E-03)
 number of electron  951.9999897 magnetization   -1.2613949
 augmentation part    22.7811610 magnetization   -0.7311800

 Broyden mixing:
  rms(total) = 0.56680E-02    rms(broyden)= 0.55814E-02
  rms(prec ) = 0.59045E-02
  weight for this iteration     100.00

 eigenvalues of (default mixing * dielectric matrix)
  average eigenvalue GAMMA=   1.5052
  9.9577  5.0766  2.9549  2.2632  1.5699  1.2082  1.2082  1.2505  0.0843  0.8548
  0.8548  0.6713  0.6713  0.2929  0.2929  0.6773  0.6773  0.5397  0.5397  0.5405
  0.5071  0.4218

 Free energy of the ion-electron system (eV)
  ---------------------------------------------------
  alpha Z        PSCENC =      2847.48764424
  Ewald energy   TEWEN  =    219675.52964435
  -1/2 Hartree   DENC   =   -293881.12942035
  -V(xc)+E(xc)   XCENC  =      2459.48674631
  PAW double counting   =     50092.87287947   -49256.21596808
  entropy T*S    EENTRO =        -0.01150234
  eigenvalues    EBANDS =     -9301.86384794
  atomic energy  EATOM  =     76450.79955823
  ---------------------------------------------------
  free energy    TOTEN  =      -913.04426610 eV

  energy without entropy =     -913.03276376  energy(sigma->0) =     -913.04043199


--------------------------------------------------------------------------------------------------------




----------------------------------------- Iteration   20(  24)  ---------------------------------------


    POTLOK:  VPU time   11.01: CPU time   11.01
    SETDIJ:  VPU time    0.41: CPU time    0.41
    EDDIAG:  VPU time   53.41: CPU time   53.42
  RMM-DIIS:  VPU time  112.01: CPU time  112.21
    ORTHCH:  VPU time    7.68: CPU time    7.69
    DOS   :  VPU time    0.00: CPU time    0.00
    CHARGE:  VPU time   16.28: CPU time   16.29
    MIXING:  VPU time    0.32: CPU time    0.32
    ------------------------------------------
      LOOP:  VPU time  201.18: CPU time  201.40

 eigenvalue-minimisations  :  1800
 total energy-change (2. order) :-0.4320311E-04  (-0.7572710E-04)
 number of electron  951.9999897 magnetization   -1.2613287
 augmentation part    22.7814042 magnetization   -0.7300622

 Broyden mixing:
  rms(total) = 0.26690E-02    rms(broyden)= 0.26278E-02
  rms(prec ) = 0.27464E-02
  weight for this iteration     100.00

 eigenvalues of (default mixing * dielectric matrix)
  average eigenvalue GAMMA=   1.5094
 10.8340  5.4959  2.9324  2.2493  1.7234  1.1687  1.1687  1.1715  0.0843  0.8920
  0.8920  0.6594  0.6594  0.2929  0.2929  0.6713  0.6713  0.5377  0.5377  0.5325
  0.5137  0.4218  0.3126

 Free energy of the ion-electron system (eV)
  ---------------------------------------------------
  alpha Z        PSCENC =      2847.48764424
  Ewald energy   TEWEN  =    219675.52964435
  -1/2 Hartree   DENC   =   -293881.08871811
  -V(xc)+E(xc)   XCENC  =      2459.48612764
  PAW double counting   =     50092.86091759   -49256.20370418
  entropy T*S    EENTRO =        -0.01144066
  eigenvalues    EBANDS =     -9301.90433840
  atomic energy  EATOM  =     76450.79955823
  ---------------------------------------------------
  free energy    TOTEN  =      -913.04430930 eV

  energy without entropy =     -913.03286864  energy(sigma->0) =     -913.04049575


--------------------------------------------------------------------------------------------------------




----------------------------------------- Iteration   20(  25)  ---------------------------------------


    POTLOK:  VPU time   11.04: CPU time   11.04
    SETDIJ:  VPU time    0.40: CPU time    0.40
    EDDIAG:  VPU time   53.58: CPU time   53.60
  RMM-DIIS:  VPU time  102.30: CPU time  102.44
    ORTHCH:  VPU time    7.70: CPU time    7.70
    DOS   :  VPU time    0.00: CPU time    0.00
    CHARGE:  VPU time   16.34: CPU time   16.34
    MIXING:  VPU time    0.34: CPU time    0.34
    ------------------------------------------
      LOOP:  VPU time  191.74: CPU time  191.90

 eigenvalue-minimisations  :  1634
 total energy-change (2. order) :-0.1951020E-04  (-0.7197749E-05)
 number of electron  951.9999897 magnetization   -1.2619481
 augmentation part    22.7813972 magnetization   -0.7307508

 Broyden mixing:
  rms(total) = 0.26215E-02    rms(broyden)= 0.26159E-02
  rms(prec ) = 0.27234E-02
  weight for this iteration     100.00

 eigenvalues of (default mixing * dielectric matrix)
  average eigenvalue GAMMA=   1.4255
  9.5421  5.3214  2.9202  2.2367  1.8212  0.5557  1.1825  1.1825  1.2023  0.0843
  0.8753  0.8753  0.6874  0.6874  0.2929  0.2929  0.7091  0.7091  0.5463  0.5463
  0.5321  0.5321  0.4216  0.4562

 Free energy of the ion-electron system (eV)
  ---------------------------------------------------
  alpha Z        PSCENC =      2847.48764424
  Ewald energy   TEWEN  =    219675.52964435
  -1/2 Hartree   DENC   =   -293881.08985065
  -V(xc)+E(xc)   XCENC  =      2459.48614509
  PAW double counting   =     50092.86142585   -49256.20421468
  entropy T*S    EENTRO =        -0.01144041
  eigenvalues    EBANDS =     -9301.90324082
  atomic energy  EATOM  =     76450.79955823
  ---------------------------------------------------
  free energy    TOTEN  =      -913.04432881 eV

  energy without entropy =     -913.03288840  energy(sigma->0) =     -913.04051534


--------------------------------------------------------------------------------------------------------




----------------------------------------- Iteration   20(  26)  ---------------------------------------


    POTLOK:  VPU time   11.04: CPU time   11.04
    SETDIJ:  VPU time    0.40: CPU time    0.40
    EDDIAG:  VPU time   54.61: CPU time   54.62
  RMM-DIIS:  VPU time  103.44: CPU time  103.58
    ORTHCH:  VPU time    7.67: CPU time    7.67
    DOS   :  VPU time    0.00: CPU time    0.00
    CHARGE:  VPU time   16.73: CPU time   16.73
    MIXING:  VPU time    0.36: CPU time    0.36
    ------------------------------------------
      LOOP:  VPU time  194.28: CPU time  194.45

 eigenvalue-minimisations  :  1619
 total energy-change (2. order) : 0.4526651E-04  (-0.2029884E-04)
 number of electron  951.9999897 magnetization   -1.2615625
 augmentation part    22.7816605 magnetization   -0.7293769

 Broyden mixing:
  rms(total) = 0.21857E-02    rms(broyden)= 0.21822E-02
  rms(prec ) = 0.22456E-02
  weight for this iteration     100.00

 eigenvalues of (default mixing * dielectric matrix)
  average eigenvalue GAMMA=   1.3592
  8.2578  5.5009  2.9204  2.1888  1.2399  1.8141  1.1805  1.1805  1.2039  0.0843
  0.8752  0.8752  0.7037  0.7037  0.2929  0.2929  0.6983  0.6983  0.5428  0.5428
  0.5258  0.5258  0.4218  0.3900  0.3201

 Free energy of the ion-electron system (eV)
  ---------------------------------------------------
  alpha Z        PSCENC =      2847.48764424
  Ewald energy   TEWEN  =    219675.5296