 vasp.5.2.8 07Jul10 complex 
 executed on             LinuxIFC date 2010.11.29  15:34:56
 running on    8 nodes
 distr:  one band on    1 nodes,    8 groups


--------------------------------------------------------------------------------------------------------


 INCAR:
 POTCAR:   PAW_PBE H 15Jun2001                    
 POTCAR:   PAW_PBE C 08Apr2002                    
 POTCAR:   PAW_PBE O 08Apr2002                    
 POTCAR:   PAW_PBE Si 05Jan2001                   
 POTCAR:   PAW_PBE H 15Jun2001                    
   VRHFIN =H: ultrasoft test                                                    
   LEXCH  = PE                                                                  
   EATOM  =    12.4884 eV,     .9179 Ry                                         
                                                                                
   TITEL  = PAW_PBE H 15Jun2001                                                 
   LULTRA =        F    use ultrasoft PP ?                                      
   IUNSCR =        0    unscreen: 0-lin 1-nonlin 2-no                           
   RPACOR =     .000    partial core radius                                     
   POMASS =    1.000; ZVAL   =    1.000    mass and valenz                      
   RCORE  =    1.100    outmost cutoff radius                                   
   RWIGS  =     .700; RWIGS  =     .370    wigner-seitz radius (au A)           
   ENMAX  =  250.000; ENMIN  =  200.000 eV                                      
   RCLOC  =     .701    cutoff for local pot                                    
   LCOR   =        T    correct aug charges                                     
   LPAW   =        T    paw PP                                                  
   EAUG   =  400.000                                                            
   RMAX   =    2.174    core radius for proj-oper                               
   RAUG   =    1.200    factor for augmentation sphere                          
   RDEP   =    1.112    radius for radial grids                                 
   QCUT   =   -5.749; QGAM   =   11.498    optimization parameters              
                                                                                
   Description                                                                  
     l     E      TYP  RCUT    TYP  RCUT                                        
     0   .000     23  1.100                                                     
     0   .500     23  1.100                                                     
     1  -.300     23  1.100                                                     
  local pseudopotential read in
  atomic valenz-charges read in
  non local Contribution for L=           0  read in
    real space projection operators read in
  non local Contribution for L=           0  read in
    real space projection operators read in
  non local Contribution for L=           1  read in
    real space projection operators read in
    PAW grid and wavefunctions read in
 
   number of l-projection  operators is LMAX  =           3
   number of lm-projection operators is LMMAX =           5
 
 POTCAR:   PAW_PBE C 08Apr2002                    
   VRHFIN =C: s2p2                                                              
   LEXCH  = PE                                                                  
   EATOM  =   147.1560 eV,   10.8157 Ry                                         
                                                                                
   TITEL  = PAW_PBE C 08Apr2002                                                 
   LULTRA =        F    use ultrasoft PP ?                                      
   IUNSCR =        0    unscreen: 0-lin 1-nonlin 2-no                           
   RPACOR =     .000    partial core radius                                     
   POMASS =   12.011; ZVAL   =    4.000    mass and valenz                      
   RCORE  =    1.500    outmost cutoff radius                                   
   RWIGS  =    1.630; RWIGS  =     .863    wigner-seitz radius (au A)           
   ENMAX  =  400.000; ENMIN  =  300.000 eV                                      
   ICORE  =        2    local potential                                         
   LCOR   =        T    correct aug charges                                     
   LPAW   =        T    paw PP                                                  
   EAUG   =  644.873                                                            
   DEXC   =     .000                                                            
   RMAX   =    2.266    core radius for proj-oper                               
   RAUG   =    1.300    factor for augmentation sphere                          
   RDEP   =    1.501    radius for radial grids                                 
   RDEPT  =    1.300    core radius for aug-charge                              
   QCUT   =   -5.516; QGAM   =   11.032    optimization parameters              
                                                                                
   Description                                                                  
     l     E      TYP  RCUT    TYP  RCUT                                        
     0   .000     23  1.200                                                     
     0   .000     23  1.200                                                     
     1   .000     23  1.500                                                     
     1  2.500     23  1.500                                                     
     2   .000      7  1.500                                                     
  local pseudopotential read in
  atomic valenz-charges read in
  non local Contribution for L=           0  read in
    real space projection operators read in
  non local Contribution for L=           0  read in
    real space projection operators read in
  non local Contribution for L=           1  read in
    real space projection operators read in
  non local Contribution for L=           1  read in
    real space projection operators read in
    PAW grid and wavefunctions read in
 
   number of l-projection  operators is LMAX  =           4
   number of lm-projection operators is LMMAX =           8
 
 POTCAR:   PAW_PBE O 08Apr2002                    
   VRHFIN =O: s2p4                                                              
   LEXCH  = PE                                                                  
   EATOM  =   432.3788 eV,   31.7789 Ry                                         
                                                                                
   TITEL  = PAW_PBE O 08Apr2002                                                 
   LULTRA =        F    use ultrasoft PP ?                                      
   IUNSCR =        0    unscreen: 0-lin 1-nonlin 2-no                           
   RPACOR =     .000    partial core radius                                     
   POMASS =   16.000; ZVAL   =    6.000    mass and valenz                      
   RCORE  =    1.520    outmost cutoff radius                                   
   RWIGS  =    1.550; RWIGS  =     .820    wigner-seitz radius (au A)           
   ENMAX  =  400.000; ENMIN  =  300.000 eV                                      
   ICORE  =        2    local potential                                         
   LCOR   =        T    correct aug charges                                     
   LPAW   =        T    paw PP                                                  
   EAUG   =  605.392                                                            
   DEXC   =     .000                                                            
   RMAX   =    2.264    core radius for proj-oper                               
   RAUG   =    1.300    factor for augmentation sphere                          
   RDEP   =    1.550    radius for radial grids                                 
   QCUT   =   -5.520; QGAM   =   11.041    optimization parameters              
                                                                                
   Description                                                                  
     l     E      TYP  RCUT    TYP  RCUT                                        
     0   .000     23  1.200                                                     
     0  -.700     23  1.200                                                     
     1   .000     23  1.520                                                     
     1   .600     23  1.520                                                     
     2   .000      7  1.500                                                     
  local pseudopotential read in
  atomic valenz-charges read in
  non local Contribution for L=           0  read in
    real space projection operators read in
  non local Contribution for L=           0  read in
    real space projection operators read in
  non local Contribution for L=           1  read in
    real space projection operators read in
  non local Contribution for L=           1  read in
    real space projection operators read in
    PAW grid and wavefunctions read in
 
   number of l-projection  operators is LMAX  =           4
   number of lm-projection operators is LMMAX =           8
 
 POTCAR:   PAW_PBE Si 05Jan2001                   
   VRHFIN =Si: s2p2                                                             
   LEXCH  = PE                                                                  
   EATOM  =   103.0669 eV,    7.5752 Ry                                         
                                                                                
   TITEL  = PAW_PBE Si 05Jan2001                                                
   LULTRA =        F    use ultrasoft PP ?                                      
   IUNSCR =        1    unscreen: 0-lin 1-nonlin 2-no                           
   RPACOR =    1.500    partial core radius                                     
   POMASS =   28.085; ZVAL   =    4.000    mass and valenz                      
   RCORE  =    1.900    outmost cutoff radius                                   
   RWIGS  =    2.480; RWIGS  =    1.312    wigner-seitz radius (au A)           
   ENMAX  =  245.345; ENMIN  =  184.009 eV                                      
   ICORE  =        2    local potential                                         
   LCOR   =        T    correct aug charges                                     
   LPAW   =        T    paw PP                                                  
   EAUG   =  322.069                                                            
   DEXC   =    -.007                                                            
   RMAX   =    2.944    core radius for proj-oper                               
   RAUG   =    1.300    factor for augmentation sphere                          
   RDEP   =    1.993    radius for radial grids                                 
   QCUT   =   -4.246; QGAM   =    8.493    optimization parameters              
                                                                                
   Description                                                                  
     l     E      TYP  RCUT    TYP  RCUT                                        
     0   .000     23  1.900                                                     
     0   .000     23  1.900                                                     
     1   .000     23  1.900                                                     
     1   .000     23  1.900                                                     
     2   .000      7  1.900                                                     
  local pseudopotential read in
  partial core-charges read in
  atomic valenz-charges read in
  non local Contribution for L=           0  read in
    real space projection operators read in
  non local Contribution for L=           0  read in
    real space projection operators read in
  non local Contribution for L=           1  read in
    real space projection operators read in
  non local Contribution for L=           1  read in
    real space projection operators read in
    PAW grid and wavefunctions read in
 
   number of l-projection  operators is LMAX  =           4
   number of lm-projection operators is LMMAX =           8
 

 ----------------------------------------------------------------------------- 
|                                                                             |
|  ADVICE TO THIS USER RUNNING 'VASP/VAMP'   (HEAR YOUR MASTER'S VOICE ...):  |
|                                                                             |
|      You have a (more or less) 'small supercell' and for smaller cells      |
|      it is recommended  to use the reciprocal-space projection scheme!      |
|      The real space optimization is not  efficient for small cells and it   |
|      is also less accurate ...                                              |
|      Therefore set LREAL=.FALSE. in the  INCAR file                         |
|                                                                             |
 ----------------------------------------------------------------------------- 

 Optimization of the real space projectors (new method)

 maximal supplied QI-value         = 34.20
 optimisation between [QCUT,QGAM] = [ 10.60, 21.55] = [ 31.48,130.03] Ry 
 Optimized for a Real-space Cutoff    1.26 Angstroem

   l    n(q)    QCUT    max X(q) W(low)/X(q) W(high)/X(q)  e(spline) 
   0      8    10.603     4.436    0.27E-04    0.54E-04    0.48E-07
   0      8    10.603    16.131    0.19E-03    0.36E-03    0.25E-06
   1      8    10.603     4.654    0.39E-04    0.18E-03    0.33E-06
 Optimization of the real space projectors (new method)

 maximal supplied QI-value         = 25.13
 optimisation between [QCUT,QGAM] = [ 10.81, 21.61] = [ 32.71,130.83] Ry 
 Optimized for a Real-space Cutoff    1.26 Angstroem

   l    n(q)    QCUT    max X(q) W(low)/X(q) W(high)/X(q)  e(spline) 
   0      8    10.807     5.582    0.31E-04    0.50E-04    0.50E-07
   0      8    10.807    69.432    0.21E-03    0.46E-03    0.27E-06
   1      8    10.807     2.780    0.56E-04    0.68E-04    0.10E-06
   1      8    10.807     4.549    0.18E-03    0.21E-03    0.15E-06
 Optimization of the real space projectors (new method)

 maximal supplied QI-value         = 24.76
 optimisation between [QCUT,QGAM] = [ 10.64, 21.54] = [ 31.73,129.89] Ry 
 Optimized for a Real-space Cutoff    1.34 Angstroem

   l    n(q)    QCUT    max X(q) W(low)/X(q) W(high)/X(q)  e(spline) 
   0      9    10.645     4.192    0.39E-04    0.27E-04    0.82E-07
   0      9    10.645     8.473    0.18E-03    0.22E-03    0.25E-06
   1      8    10.645     2.474    0.49E-04    0.70E-04    0.49E-07
   1      8    10.645     3.912    0.18E-03    0.30E-03    0.21E-06
 Optimization of the real space projectors (new method)

 maximal supplied QI-value         = 19.84
 optimisation between [QCUT,QGAM] = [ 10.71, 21.63] = [ 32.15,130.99] Ry 
 Optimized for a Real-space Cutoff    1.23 Angstroem

   l    n(q)    QCUT    max X(q) W(low)/X(q) W(high)/X(q)  e(spline) 
   0      8    10.715     8.708    0.18E-04    0.72E-05    0.49E-08
   0      8    10.715   106.241    0.14E-03    0.42E-04    0.45E-07
   1      7    10.715     5.901    0.35E-04    0.27E-04    0.17E-07
   1      7    10.715    73.241    0.11E-03    0.32E-03    0.80E-07
 PAW_PBE H 15Jun2001                    :
 energy of atom  1       EATOM=  -12.4884
 kinetic energy error for atom=    0.0045 (will be added to EATOM!!)
 PAW_PBE C 08Apr2002                    :
 energy of atom  2       EATOM= -147.1560
 kinetic energy error for atom=    0.0116 (will be added to EATOM!!)
 PAW_PBE O 08Apr2002                    :
 energy of atom  3       EATOM= -432.3788
 kinetic energy error for atom=    0.0389 (will be added to EATOM!!)
 PAW_PBE Si 05Jan2001                   :
 energy of atom  4       EATOM= -103.0669
 kinetic energy error for atom=    0.0009 (will be added to EATOM!!)
 
 
 POSCAR: H 4   C 1   O 2   Si 1                  
  positions in direct lattice
  velocities in cartesian coordinates
 exchange correlation table for  LEXCH =        8
   RHO(1)=    0.500       N(1)  =     2000
   RHO(2)=  100.500       N(2)  =     4000
 


--------------------------------------------------------------------------------------------------------


 ion  position               nearest neighbor table
   1  0.473  0.559  0.533-   6 0.97
   2  0.144  0.646  0.533-   8 1.49
   3  0.228  0.451  0.654-   8 1.50
   4  0.228  0.451  0.412-   8 1.50
   5  0.662  0.444  0.533-   7 1.14
   6  0.393  0.614  0.533-   1 0.97   8 1.66
   7  0.763  0.391  0.533-   5 1.14
   8  0.246  0.538  0.533-   2 1.49   4 1.50   3 1.50   6 1.66
 
  LATTYP: Found a simple cubic cell.
 ALAT       =    10.0000000000
  
  Lattice vectors:
  
 A1 = (  10.0000000000,   0.0000000000,   0.0000000000)
 A2 = (   0.0000000000,  10.0000000000,   0.0000000000)
 A3 = (   0.0000000000,   0.0000000000,  10.0000000000)
 Subroutine PRICEL returns:
 Original cell was already a primitive cell.
 

Analysis of symmetry for initial positions (statically):

 Routine SETGRP: Setting up the symmetry group for a 
 simple cubic supercell.


 Subroutine GETGRP returns: Found  2 space group operations
 (whereof  1 operations were pure point group operations)
 out of a pool of 48 trial point group operations.


The static configuration has the point symmetry C_1 .
 The point group associated with its full space group is C_1h.

Analysis of symmetry for dynamics (positions and initial velocities):

 Subroutine DYNSYM returns: Found  2 space group operations
 (whereof  1 operations were pure point group operations)
 out of a pool of  2 trial space group operations
 (whereof  1 operations were pure point group operations)
 and found also     1 'primitive' translations


The dynamic configuration has the point symmetry C_1 .
 The point group associated with its full space group is C_1h.
 
 
 KPOINTS: 1x1x1                                   

Automatic generation of k-mesh.
 
 Subroutine IBZKPT returns following result:
 ===========================================
 
 Found      1 irreducible k-points:
 
 Following reciprocal coordinates:
            Coordinates               Weight
  0.000000  0.000000  0.000000      1.000000
 
 Following cartesian coordinates:
            Coordinates               Weight
  0.000000  0.000000  0.000000      1.000000
 


--------------------------------------------------------------------------------------------------------




 Dimension of arrays:
   k-points           NKPTS =      1   k-points in BZ     NKDIM =      1   number of bands    NBANDS=     24
   number of dos      NEDOS =    301   number of ions     NIONS =      8
   non local maximal  LDIM  =      4   non local SUM 2l+1 LMDIM =      8
   total plane-waves  NPLWV = 343000
   max r-space proj   IRMAX =   3511   max aug-charges    IRDMAX=  11666
   dimension x,y,z NGX =    70 NGY =   70 NGZ =   70
   dimension x,y,z NGXF=   140 NGYF=  140 NGZF=  140
   support grid    NGXF=   140 NGYF=  140 NGZF=  140
   ions per type =               4   1   2   1
 NGX,Y,Z   is equivalent  to a cutoff of  11.64, 11.64, 11.64 a.u.
 NGXF,Y,Z  is equivalent  to a cutoff of  23.27, 23.27, 23.27 a.u.


 I would recommend the setting:
   dimension x,y,z NGX =    69 NGY =   69 NGZ =   69
 SYSTEM =  silanolo co                             
 POSCAR =  H 4   C 1   O 2   Si 1                  

 Startparameter for this run:
   NWRITE =      2    write-flag & timer
   PREC   = acc       medium, high low
   ISTART =      0    job   : 0-new  1-cont  2-samecut
   ICHARG =      2    charge: 1-file 2-atom 10-const
   ISPIN  =      1    spin polarized calculation?
   LNONCOLLINEAR =      F non collinear calculations
   LSORBIT =      F    spin-orbit coupling
   INIWAV =      1    electr: 0-lowe 1-rand  2-diag
   LASPH  =      F    aspherical Exc in radial PAW
   METAGGA=      F    non-selfconsistent MetaGGA calc.

 Electronic Relaxation 1
   ENCUT  =  450.0 eV  33.07 Ry    5.75 a.u.  17.30 17.30 17.30*2*pi/ulx,y,z
   ENINI  =  450.0     initial cutoff
   ENAUG  =  644.9 eV  augmentation charge cutoff
   NELM   =     60;   NELMIN=  2; NELMDL=-12     # of ELM steps 
   EDIFF  = 0.3E-05   stopping-criterion for ELM
   LREAL  =      T    real-space projection
   LCOMPAT=      F    compatible to vasp.4.4
   LREAL_COMPAT= F    compatible to vasp.4.5.1-3
   GGA_COMPAT  = T    GGA compatible to vasp.4.4-vasp.4.6
   LMAXPAW     = -100 max onsite density
   LMAXMIX     =    2 max onsite mixed and CHGCAR
   VOSKOWN=      0    Vosko Wilk Nusair interpolation
   ROPT   =   -0.00025  -0.00025  -0.00025  -0.00025
 Ionic relaxation
   EDIFFG = -.2E-01   stopping-criterion for IOM
   NSW    =    100    number of steps for IOM
   NBLOCK =      1;   KBLOCK =    100    inner block; outer block 
   IBRION =      2    ionic relax: 0-MD 1-quasi-New 2-CG
   NFREE  =      1    steps in history (QN), initial steepest desc. (CG)
   ISIF   =      2    stress and relaxation
   IWAVPR =     11    prediction:  0-non 1-charg 2-wave 3-comb
   ISYM   =      2    0-nonsym 1-usesym 2-fastsym
   LCORR  =      T    Harris-Foulkes like correction to forces

   POTIM  = 0.5000    time-step for ionic-motion
   TEIN   =    0.0    initial temperature
   TEBEG  =    0.0;   TEEND  =   0.0 temperature during run
   SMASS  =  -3.00    Nose mass-parameter (am)
   estimated Nose-frequenzy (Omega)   =  0.10E-29 period in steps =****** mass=  -0.229E-26a.u.
   NPACO  =    256;   APACO  = 16.0  distance and # of slots for P.C.
   PSTRESS=    0.0 pullay stress

  Mass of Ions in am
   POMASS =   1.00 12.01 16.00 28.09
  Ionic Valenz
   ZVAL   =   1.00  4.00  6.00  4.00
  Atomic Wigner-Seitz radii
   RWIGS  =  -1.00 -1.00 -1.00 -1.00
  virtual crystal weights 
   VCA    =   1.00  1.00  1.00  1.00
   NELECT =      24.0000    total number of electrons
   NUPDOWN=      -1.0000    fix difference up-down

 DOS related values:
   EMIN   =  10.00;   EMAX   =-10.00  energy-range for DOS
   EFERMI =   0.00
   ISMEAR =     0;   SIGMA  =   0.10  broadening in eV -4-tet -1-fermi 0-gaus

 Electronic relaxation 2 (details)
   IALGO  =     48    algorithm
   LDIAG  =      T    sub-space diagonalisation (order eigenvalues)
   LSUBROT=      T    optimize rotation matrix (better conditioning)
   IMIX   =      4    mixing-type and parameters
     AMIX     =   0.40;   BMIX     =  1.00
     AMIX_MAG =   1.60;   BMIX_MAG =  1.00
     AMIN     =   0.10
     WC   =   100.;   INIMIX=   1;  MIXPRE=   1

 Intra band minimization:
   WEIMIN = 0.0010     energy-eigenvalue tresh-hold
   EBREAK =  0.40E-07  absolut break condition
   DEPER  =   0.30     relativ break condition  

   TIME   =   0.40     timestep for ELM

  volume/ion in A,a.u.               =     125.00       843.54
  Fermi-wavevector in a.u.,A,eV,Ry     =   0.472221  0.892368  3.033999  0.222993
  Thomas-Fermi vector in A             =   1.465300
 
 Write flags
   LWAVE  =      T    write WAVECAR
   LCHARG =      T    write CHGCAR
   LVTOT  =      F    write LOCPOT, total local potential
   LVHAR  =      F    write LOCPOT, Hartree potential only
   LELF   =      F    write electronic localiz. function (ELF)
   LORBIT =      0    0 simple, 1 ext, 2 COOP (PROOUT)


 Dipole corrections
   LMONO  =      F    monopole corrections only (constant potential shift)
   LDIPOL =      F    correct potential (dipole corrections)
   IDIPOL =      0    1-x, 2-y, 3-z, 4-all directions 
   EPSILON=  1.0000000 bulk dielectric constant

 Exchange correlation treatment:
   GGA     =    --    GGA type
   LEXCH   =     8    internal setting for exchange type
   VOSKOWN=      0    Vosko Wilk Nusair interpolation
   LHFCALC =     F    Hartree Fock is set to
   LHFONE  =     F    Hartree Fock one center treatment
   AEXX    =    0.0000 exact exchange contribution

 Linear response parameters
   LEPSILON=     F    determine dielectric tensor
   LRPA    =     F    only Hartree local field effects (RPA)
   LNABLA  =     F    use nabla operator in PAW spheres
   LVEL    =     F    velocity operator in full k-point grid
   LINTERFAST=   F  fast interpolation
   KINTER  =     0    interpolate to denser k-point grid
   CSHIFT  =0.1000    complex shift for real part using Kramers Kronig
   OMEGAMAX=  -1.0    maximum frequency
   RTIME   =    0.100 relaxation time in fs

 Orbital magnetization related:
   ORBITALMAG=     F  switch on orbital magnetization
   LCHIMAG   =     F  perturbation theory with respect to B field



--------------------------------------------------------------------------------------------------------


 conjugate gradient relaxation of ions
 charge density and potential will be updated during run
 non-spin polarized calculation
 RMM-DIIS sequential band-by-band
 perform sub-space diagonalisation
    before iterative eigenvector-optimisation
 modified Broyden-mixing scheme, WC =      100.0
 initial mixing is a Kerker type mixing with AMIX =  0.4000 and BMIX =      1.0000
 Hartree-type preconditioning will be used
 using additional bands           12
 real space projection scheme for non local part
 use partial core corrections
 calculate Harris-corrections to forces 
   (improved forces if not selfconsistent)
 use gradient corrections 
 use of overlap-Matrix (Vanderbilt PP)
 Gauss-broadening in eV      SIGMA  =   0.10


--------------------------------------------------------------------------------------------------------


  energy-cutoff  :      450.00
  volume of cell :     1000.00
      direct lattice vectors                 reciprocal lattice vectors
    10.000000000  0.000000000  0.000000000     0.100000000  0.000000000  0.000000000
     0.000000000 10.000000000  0.000000000     0.000000000  0.100000000  0.000000000
     0.000000000  0.000000000 10.000000000     0.000000000  0.000000000  0.100000000

  length of vectors
    10.000000000 10.000000000 10.000000000     0.100000000  0.100000000  0.100000000


 
 k-points in units of 2pi/SCALE and weight: 1x1x1                                   
   0.00000000  0.00000000  0.00000000       1.000
 
 k-points in reciprocal lattice and weights: 1x1x1                                   
   0.00000000  0.00000000  0.00000000       1.000
 
 position of ions in fractional coordinates (direct lattice) 
   0.47332967  0.55857933  0.53333333
   0.14384755  0.64584306  0.53333333
   0.22773111  0.45130808  0.65428306
   0.22773111  0.45130808  0.41238361
   0.66167668  0.44356890  0.53333333
   0.39326084  0.61420629  0.53333333
   0.76286779  0.39089929  0.53333333
   0.24615485  0.53766569  0.53333333
 
 position of ions in cartesian coordinates  (Angst):
   4.73329675  5.58579328  5.33333333
   1.43847549  6.45843062  5.33333333
   2.27731111  4.51308080  6.54283058
   2.27731111  4.51308080  4.12383609
   6.61676683  4.43568898  5.33333333
   3.93260839  6.14206288  5.33333333
   7.62867793  3.90899294  5.33333333
   2.46154850  5.37665686  5.33333333
 


--------------------------------------------------------------------------------------------------------


 k-point  1 :  0.00000.00000.0000  plane waves:   21823

 maximum and minimum number of plane-waves per node :   21823  21823

 maximum number of plane-waves:   21823
 maximal index in each direction: 
   IXMAX= 17   IYMAX= 17   IZMAX= 17
   IXMIN=-17   IYMIN=-17   IZMIN=-17

 NGX is ok and might be reduce to  70
 NGY is ok and might be reduce to  70
 NGZ is ok and might be reduce to  70

 serial   3D FFT for wavefunctions
 parallel 3D FFT for charge:
    minimum data exchange during FFTs selected (reduces bandwidth)


 total amount of memory used by VASP on root node  85688. kBytes
========================================================================

   base      :    30000. kBytes
   nonlr-proj:     1818. kBytes
   fftplans  :    13314. kBytes
   grid      :    39482. kBytes
   one-center:       24. kBytes
   wavefun   :     1050. kBytes
 
 Broyden mixing: mesh for mixing (old mesh)
   NGX = 35   NGY = 35   NGZ = 35
  (NGX  =140   NGY  =140   NGZ  =140)
  gives a total of  42875 points

 initial charge density was supplied:
 charge density of overlapping atoms calculated
 number of electron   24.0000000 magnetization 
 keeping initial charge density in first step


--------------------------------------------------------------------------------------------------------


 Maximum index for non-local projection operator         3363
 Maximum index for augmentation-charges         1377 (set IRDMAX)


--------------------------------------------------------------------------------------------------------


 First call to EWALD:  gamma=   0.177
 Maximum number of real-space cells 3x 3x 3
 Maximum number of reciprocal cells 3x 3x 3

    FEWALD:  cpu time    0.00: real time    0.00
   RESPFUN:  cpu time    0.00: real time    0.00


----------------------------------------- Iteration    1(   1)  ---------------------------------------


    POTLOK:  cpu time    1.20: real time    1.20
    SETDIJ:  cpu time    0.00: real time    0.00
    EDDIAG:  cpu time    0.36: real time    0.35
  RMM-DIIS:  cpu time    0.82: real time    0.82
    ORTHCH:  cpu time    0.02: real time    0.02
       DOS:  cpu time    0.00: real time    0.00
    --------------------------------------------
      LOOP:  cpu time    2.39: real time    2.40

 eigenvalue-minimisations  :    24
 total energy-change (2. order) : 0.3275396E+03  (-0.3396808E+03)
 number of electron   24.0000000 magnetization 
 augmentation part    24.0000000 magnetization 

 Free energy of the ion-electron system (eV)
  ---------------------------------------------------
  alpha Z        PSCENC =         2.03619615
  Ewald energy   TEWEN  =       287.31614643
  -1/2 Hartree   DENC   =     -1200.08171646
  -exchange  EXHF       =         0.00000000
  -V(xc)+E(xc)   XCENC  =        67.08874255
  PAW double counting   =       565.93115523     -553.22369639
  entropy T*S    EENTRO =        -0.00302308
  eigenvalues    EBANDS =        -6.34987352
  atomic energy  EATOM  =      1164.82564804
  ---------------------------------------------------
  free energy    TOTEN  =       327.53957894 eV

  energy without entropy =      327.54260203  energy(sigma->0) =      327.54109049


--------------------------------------------------------------------------------------------------------




----------------------------------------- Iteration    1(   2)  ---------------------------------------


    EDDIAG:  cpu time    0.35: real time    0.35
  RMM-DIIS:  cpu time    0.83: real time    0.83
    ORTHCH:  cpu time    0.02: real time    0.02
       DOS:  cpu time    0.00: real time    0.00
    --------------------------------------------
      LOOP:  cpu time    1.20: real time    1.20

 eigenvalue-minimisations  :    24
 total energy-change (2. order) :-0.1315251E+03  (-0.1440933E+03)
 number of electron   24.0000000 magnetization 
 augmentation part    24.0000000 magnetization 

 Free energy of the ion-electron system (eV)
  ---------------------------------------------------
  alpha Z        PSCENC =         2.03619615
  Ewald energy   TEWEN  =       287.31614643
  -1/2 Hartree   DENC   =     -1200.08171646
  -exchange  EXHF       =         0.00000000
  -V(xc)+E(xc)   XCENC  =        67.08874255
  PAW double counting   =       565.93115523     -553.22369639
  entropy T*S    EENTRO =        -0.01538207
  eigenvalues    EBANDS =      -137.86266105
  atomic energy  EATOM  =      1164.82564804
  ---------------------------------------------------
  free energy    TOTEN  =       196.01443243 eV

  energy without entropy =      196.02981450  energy(sigma->0) =      196.02212347


--------------------------------------------------------------------------------------------------------




----------------------------------------- Iteration    1(   3)  ---------------------------------------


    EDDIAG:  cpu time    0.35: real time    0.35
  RMM-DIIS:  cpu time    0.82: real time    0.82
    ORTHCH:  cpu time    0.02: real time    0.02
       DOS:  cpu time    0.00: real time    0.00
    --------------------------------------------
      LOOP:  cpu time    1.19: real time    1.19

 eigenvalue-minimisations  :    24
 total energy-change (2. order) :-0.6571356E+02  (-0.8263562E+02)
 number of electron   24.0000000 magnetization 
 augmentation part    24.0000000 magnetization 

 Free energy of the ion-electron system (eV)
  ---------------------------------------------------
  alpha Z        PSCENC =         2.03619615
  Ewald energy   TEWEN  =       287.31614643
  -1/2 Hartree   DENC   =     -1200.08171646
  -exchange  EXHF       =         0.00000000
  -V(xc)+E(xc)   XCENC  =        67.08874255
  PAW double counting   =       565.93115523     -553.22369639
  entropy T*S    EENTRO =        -0.00161460
  eigenvalues    EBANDS =      -203.58999236
  atomic energy  EATOM  =      1164.82564804
  ---------------------------------------------------
  free energy    TOTEN  =       130.30086859 eV

  energy without entropy =      130.30248319  energy(sigma->0) =      130.30167589


--------------------------------------------------------------------------------------------------------




----------------------------------------- Iteration    1(   4)  ---------------------------------------


    EDDIAG:  cpu time    0.35: real time    0.35
  RMM-DIIS:  cpu time    0.82: real time    0.81
    ORTHCH:  cpu time    0.02: real time    0.02
       DOS:  cpu time    0.00: real time    0.00
    --------------------------------------------
      LOOP:  cpu time    1.19: real time    1.19

 eigenvalue-minimisations  :    24
 total energy-change (2. order) :-0.9927437E+02  (-0.8770832E+02)
 number of electron   24.0000000 magnetization 
 augmentation part    24.0000000 magnetization 

 Free energy of the ion-electron system (eV)
  ---------------------------------------------------
  alpha Z        PSCENC =         2.03619615
  Ewald energy   TEWEN  =       287.31614643
  -1/2 Hartree   DENC   =     -1200.08171646
  -exchange  EXHF       =         0.00000000
  -V(xc)+E(xc)   XCENC  =        67.08874255
  PAW double counting   =       565.93115523     -553.22369639
  entropy T*S    EENTRO =         0.00000000
  eigenvalues    EBANDS =      -302.86597744
  atomic energy  EATOM  =      1164.82564804
  ---------------------------------------------------
  free energy    TOTEN  =        31.02649811 eV

  energy without entropy =       31.02649811  energy(sigma->0) =       31.02649811


--------------------------------------------------------------------------------------------------------




----------------------------------------- Iteration    1(   5)  ---------------------------------------


    EDDIAG:  cpu time    0.35: real time    0.35
  RMM-DIIS:  cpu time    0.82: real time    0.82
    ORTHCH:  cpu time    0.02: real time    0.02
       DOS:  cpu time    0.00: real time    0.00
    --------------------------------------------
      LOOP:  cpu time    1.19: real time    1.19

 eigenvalue-minimisations  :    24
 total energy-change (2. order) :-0.4835998E+02  (-0.4404161E+02)
 number of electron   24.0000000 magnetization 
 augmentation part    24.0000000 magnetization 

 Free energy of the ion-electron system (eV)
  ---------------------------------------------------
  alpha Z        PSCENC =         2.03619615
  Ewald energy   TEWEN  =       287.31614643
  -1/2 Hartree   DENC   =     -1200.08171646
  -exchange  EXHF       =         0.00000000
  -V(xc)+E(xc)   XCENC  =        67.08874255
  PAW double counting   =       565.93115523     -553.22369639
  entropy T*S    EENTRO =         0.00000000
  eigenvalues    EBANDS =      -351.22595656
  atomic energy  EATOM  =      1164.82564804
  ---------------------------------------------------
  free energy    TOTEN  =       -17.33348101 eV

  energy without entropy =      -17.33348101  energy(sigma->0) =      -17.33348101


--------------------------------------------------------------------------------------------------------




----------------------------------------- Iteration    1(   6)  ---------------------------------------


    EDDIAG:  cpu time    0.36: real time    0.35
  RMM-DIIS:  cpu time    0.82: real time    0.82
    ORTHCH:  cpu time    0.02: real time    0.02
       DOS:  cpu time    0.00: real time    0.00
    --------------------------------------------
      LOOP:  cpu time    1.20: real time    1.19

 eigenvalue-minimisations  :    24
 total energy-change (2. order) :-0.2194673E+02  (-0.1962405E+02)
 number of electron   24.0000000 magnetization 
 augmentation part    24.0000000 magnetization 

 Free energy of the ion-electron system (eV)
  ---------------------------------------------------
  alpha Z        PSCENC =         2.03619615
  Ewald energy   TEWEN  =       287.31614643
  -1/2 Hartree   DENC   =     -1200.08171646
  -exchange  EXHF       =         0.00000000
  -V(xc)+E(xc)   XCENC  =        67.08874255
  PAW double counting   =       565.93115523     -553.22369639
  entropy T*S    EENTRO =         0.00000000
  eigenvalues    EBANDS =      -373.17268635
  atomic energy  EATOM  =      1164.82564804
  ---------------------------------------------------
  free energy    TOTEN  =       -39.28021079 eV

  energy without entropy =      -39.28021079  energy(sigma->0) =      -39.28021079


--------------------------------------------------------------------------------------------------------




----------------------------------------- Iteration    1(   7)  ---------------------------------------


    EDDIAG:  cpu time    0.35: real time    0.35
  RMM-DIIS:  cpu time    0.82: real time    0.82
    ORTHCH:  cpu time    0.02: real time    0.02
       DOS:  cpu time    0.00: real time    0.00
    --------------------------------------------
      LOOP:  cpu time    1.19: real time    1.19

 eigenvalue-minimisations  :    24
 total energy-change (2. order) :-0.4711543E+01  (-0.4302176E+01)
 number of electron   24.0000000 magnetization 
 augmentation part    24.0000000 magnetization 

 Free energy of the ion-electron system (eV)
  ---------------------------------------------------
  alpha Z        PSCENC =         2.03619615
  Ewald energy   TEWEN  =       287.31614643
  -1/2 Hartree   DENC   =     -1200.08171646
  -exchange  EXHF       =         0.00000000
  -V(xc)+E(xc)   XCENC  =        67.08874255
  PAW double counting   =       565.93115523     -553.22369639
  entropy T*S    EENTRO =         0.00000000
  eigenvalues    EBANDS =      -377.88422974
  atomic energy  EATOM  =      1164.82564804
  ---------------------------------------------------
  free energy    TOTEN  =       -43.99175418 eV

  energy without entropy =      -43.99175418  energy(sigma->0) =      -43.99175418


--------------------------------------------------------------------------------------------------------




----------------------------------------- Iteration    1(   8)  ---------------------------------------


    EDDIAG:  cpu time    0.35: real time    0.35
  RMM-DIIS:  cpu time    0.82: real time    0.81
    ORTHCH:  cpu time    0.02: real time    0.02
       DOS:  cpu time    0.00: real time    0.00
    --------------------------------------------
      LOOP:  cpu time    1.19: real time    1.19

 eigenvalue-minimisations  :    24
 total energy-change (2. order) :-0.1173896E+01  (-0.9949656E+00)
 number of electron   24.0000000 magnetization 
 augmentation part    24.0000000 magnetization 

 Free energy of the ion-electron system (eV)
  ---------------------------------------------------
  alpha Z        PSCENC =         2.03619615
  Ewald energy   TEWEN  =       287.31614643
  -1/2 Hartree   DENC   =     -1200.08171646
  -exchange  EXHF       =         0.00000000
  -V(xc)+E(xc)   XCENC  =        67.08874255
  PAW double counting   =       565.93115523     -553.22369639
  entropy T*S    EENTRO =         0.00000000
  eigenvalues    EBANDS =      -379.05812546
  atomic energy  EATOM  =      1164.82564804
  ---------------------------------------------------
  free energy    TOTEN  =       -45.16564990 eV

  energy without entropy =      -45.16564990  energy(sigma->0) =      -45.16564990


--------------------------------------------------------------------------------------------------------




----------------------------------------- Iteration    1(   9)  ---------------------------------------


    EDDIAG:  cpu time    0.35: real time    0.35
  RMM-DIIS:  cpu time    1.41: real time    1.41
    ORTHCH:  cpu time    0.02: real time    0.02
       DOS:  cpu time    0.00: real time    0.00
    --------------------------------------------
      LOOP:  cpu time    1.78: real time    1.78

 eigenvalue-minimisations  :    48
 total energy-change (2. order) :-0.3547312E+00  (-0.3292390E+00)
 number of electron   24.0000000 magnetization 
 augmentation part    24.0000000 magnetization 

 Free energy of the ion-electron system (eV)
  ---------------------------------------------------
  alpha Z        PSCENC =         2.03619615
  Ewald energy   TEWEN  =       287.31614643
  -1/2 Hartree   DENC   =     -1200.08171646
  -exchange  EXHF       =         0.00000000
  -V(xc)+E(xc)   XCENC  =        67.08874255
  PAW double counting   =       565.93115523     -553.22369639
  entropy T*S    EENTRO =         0.00000000
  eigenvalues    EBANDS =      -379.41285667
  atomic energy  EATOM  =      1164.82564804
  ---------------------------------------------------
  free energy    TOTEN  =       -45.52038112 eV

  energy without entropy =      -45.52038112  energy(sigma->0) =      -45.52038112


--------------------------------------------------------------------------------------------------------




----------------------------------------- Iteration    1(  10)  ---------------------------------------


    EDDIAG:  cpu time    0.35: real time    0.35
  RMM-DIIS:  cpu time    1.50: real time    1.50
    ORTHCH:  cpu time    0.02: real time    0.02
       DOS:  cpu time    0.00: real time    0.00
    --------------------------------------------
      LOOP:  cpu time    1.87: real time    1.87

 eigenvalue-minimisations  :    51
 total energy-change (2. order) :-0.4512604E-01  (-0.3820463E-01)
 number of electron   24.0000000 magnetization 
 augmentation part    24.0000000 magnetization 

 Free energy of the ion-electron system (eV)
  ---------------------------------------------------
  alpha Z        PSCENC =         2.03619615
  Ewald energy   TEWEN  =       287.31614643
  -1/2 Hartree   DENC   =     -1200.08171646
  -exchange  EXHF       =         0.00000000
  -V(xc)+E(xc)   XCENC  =        67.08874255
  PAW double counting   =       565.93115523     -553.22369639
  entropy T*S    EENTRO =         0.00000000
  eigenvalues    EBANDS =      -379.45798272
  atomic energy  EATOM  =      1164.82564804
  ---------------------------------------------------
  free energy    TOTEN  =       -45.56550716 eV

  energy without entropy =      -45.56550716  energy(sigma->0) =      -45.56550716


--------------------------------------------------------------------------------------------------------




----------------------------------------- Iteration    1(  11)  ---------------------------------------


    EDDIAG:  cpu time    0.35: real time    0.35
  RMM-DIIS:  cpu time    1.39: real time    1.39
    ORTHCH:  cpu time    0.02: real time    0.02
       DOS:  cpu time    0.00: real time    0.00
    --------------------------------------------
      LOOP:  cpu time    1.76: real time    1.77

 eigenvalue-minimisations  :    48
 total energy-change (2. order) :-0.1508713E-02  (-0.1985735E-02)
 number of electron   24.0000000 magnetization 
 augmentation part    24.0000000 magnetization 

 Free energy of the ion-electron system (eV)
  ---------------------------------------------------
  alpha Z        PSCENC =         2.03619615
  Ewald energy   TEWEN  =       287.31614643
  -1/2 Hartree   DENC   =     -1200.08171646
  -exchange  EXHF       =         0.00000000
  -V(xc)+E(xc)   XCENC  =        67.08874255
  PAW double counting   =       565.93115523     -553.22369639
  entropy T*S    EENTRO =         0.00000000
  eigenvalues    EBANDS =      -379.45949143
  atomic energy  EATOM  =      1164.82564804
  ---------------------------------------------------
  free energy    TOTEN  =       -45.56701588 eV

  energy without entropy =      -45.56701588  energy(sigma->0) =      -45.56701588


--------------------------------------------------------------------------------------------------------




----------------------------------------- Iteration    1(  12)  ---------------------------------------


    EDDIAG:  cpu time    0.35: real time    0.35
  RMM-DIIS:  cpu time    1.38: real time    1.38
    ORTHCH:  cpu time    0.02: real time    0.02
       DOS:  cpu time    0.00: real time    0.00
    CHARGE:  cpu time    0.34: real time    0.34
    MIXING:  cpu time    0.04: real time    0.04
    --------------------------------------------
      LOOP:  cpu time    2.12: real time    2.12

 eigenvalue-minimisations  :    48
 total energy-change (2. order) :-0.2330428E-03  (-0.2255132E-03)
 number of electron   24.0000004 magnetization 
 augmentation part     1.4127785 magnetization 

 Broyden mixing:
  rms(total) = 0.11542E+01    rms(broyden)= 0.11533E+01
  rms(prec ) = 0.15043E+01
  weight for this iteration     100.00

 Free energy of the ion-electron system (eV)
  ---------------------------------------------------
  alpha Z        PSCENC =         2.03619615
  Ewald energy   TEWEN  =       287.31614643
  -1/2 Hartree   DENC   =     -1200.08171646
  -exchange  EXHF       =         0.00000000
  -V(xc)+E(xc)   XCENC  =        67.08874255
  PAW double counting   =       565.93115523     -553.22369639
  entropy T*S    EENTRO =         0.00000000
  eigenvalues    EBANDS =      -379.45972447
  atomic energy  EATOM  =      1164.82564804
  ---------------------------------------------------
  free energy    TOTEN  =       -45.56724892 eV

  energy without entropy =      -45.56724892  energy(sigma->0) =      -45.56724892


--------------------------------------------------------------------------------------------------------




----------------------------------------- Iteration    1(  13)  ---------------------------------------


    POTLOK:  cpu time    1.19: real time    1.19
    SETDIJ:  cpu time    0.00: real time    0.00
    EDDIAG:  cpu time    0.36: real time    0.35
  RMM-DIIS:  cpu time    1.38: real time    1.38
    ORTHCH:  cpu time    0.02: real time    0.02
       DOS:  cpu time    0.00: real time    0.00
    CHARGE:  cpu time    0.34: real time    0.34
    MIXING:  cpu time    0.03: real time    0.03
    --------------------------------------------
      LOOP:  cpu time    3.32: real time    3.33

 eigenvalue-minimisations  :    48
 total energy-change (2. order) : 0.3018238E+01  (-0.9799877E+00)
 number of electron   24.0000003 magnetization 
 augmentation part     1.1830580 magnetization 

 Broyden mixing:
  rms(total) = 0.52876E+00    rms(broyden)= 0.52844E+00
  rms(prec ) = 0.66816E+00
  weight for this iteration     100.00

 eigenvalues of (default mixing * dielectric matrix)
  average eigenvalue GAMMA=   1.0346
  1.0346

 Free energy of the ion-electron system (eV)
  ---------------------------------------------------
  alpha Z        PSCENC =         2.03619615
  Ewald energy   TEWEN  =       287.31614643
  -1/2 Hartree   DENC   =     -1241.69880756
  -exchange  EXHF       =         0.00000000
  -V(xc)+E(xc)   XCENC  =        69.78278857
  PAW double counting   =       669.84805097     -657.74686440
  entropy T*S    EENTRO =         0.00000000
  eigenvalues    EBANDS =      -336.91216890
  atomic energy  EATOM  =      1164.82564804
  ---------------------------------------------------
  free energy    TOTEN  =       -42.54901070 eV

  energy without entropy =      -42.54901070  energy(sigma->0) =      -42.54901070


--------------------------------------------------------------------------------------------------------




----------------------------------------- Iteration    1(  14)  ---------------------------------------


    POTLOK:  cpu time    1.19: real time    1.19
    SETDIJ:  cpu time    0.00: real time    0.00
    EDDIAG:  cpu time    0.36: real time    0.35
  RMM-DIIS:  cpu time    1.38: real time    1.38
    ORTHCH:  cpu time    0.02: real time    0.02
       DOS:  cpu time    0.00: real time    0.00
    CHARGE:  cpu time    0.34: real time    0.34
    MIXING:  cpu time    0.04: real time    0.03
    --------------------------------------------
      LOOP:  cpu time    3.32: real time    3.32

 eigenvalue-minimisations  :    48
 total energy-change (2. order) : 0.4949731E+00  (-0.5826909E-01)
 number of electron   24.0000003 magnetization 
 augmentation part     1.1932941 magnetization 

 Broyden mixing:
  rms(total) = 0.28536E+00    rms(broyden)= 0.28533E+00
  rms(prec ) = 0.36798E+00
  weight for this iteration     100.00

 eigenvalues of (default mixing * dielectric matrix)
  average eigenvalue GAMMA=   1.3857
  0.9527  1.8188

 Free energy of the ion-electron system (eV)
  ---------------------------------------------------
  alpha Z        PSCENC =         2.03619615
  Ewald energy   TEWEN  =       287.31614643
  -1/2 Hartree   DENC   =     -1250.49945951
  -exchange  EXHF       =         0.00000000
  -V(xc)+E(xc)   XCENC  =        70.50771817
  PAW double counting   =       702.43001752     -690.33877567
  entropy T*S    EENTRO =         0.00000000
  eigenvalues    EBANDS =      -328.33152868
  atomic energy  EATOM  =      1164.82564804
  ---------------------------------------------------
  free energy    TOTEN  =       -42.05403756 eV

  energy without entropy =      -42.05403756  energy(sigma->0) =      -42.05403756


--------------------------------------------------------------------------------------------------------




----------------------------------------- Iteration    1(  15)  ---------------------------------------


    POTLOK:  cpu time    1.19: real time    1.19
    SETDIJ:  cpu time    0.00: real time    0.00
    EDDIAG:  cpu time    0.35: real time    0.35
  RMM-DIIS:  cpu time    1.38: real time    1.37
    ORTHCH:  cpu time    0.02: real time    0.02
       DOS:  cpu time    0.00: real time    0.00
    CHARGE:  cpu time    0.34: real time    0.34
    MIXING:  cpu time    0.04: real time    0.04
    --------------------------------------------
      LOOP:  cpu time    3.32: real time    3.32

 eigenvalue-minimisations  :    48
 total energy-change (2. order) : 0.2116220E+00  (-0.3208888E-01)
 number of electron   24.0000003 magnetization 
 augmentation part     1.1816214 magnetization 

 Broyden mixing:
  rms(total) = 0.81841E-01    rms(broyden)= 0.81809E-01
  rms(prec ) = 0.12610E+00
  weight for this iteration     100.00

 eigenvalues of (default mixing * dielectric matrix)
  average eigenvalue GAMMA=   1.3472
  2.2123  1.0585  0.7708

 Free energy of the ion-electron system (eV)
  ---------------------------------------------------
  alpha Z        PSCENC =         2.03619615
  Ewald energy   TEWEN  =       287.31614643
  -1/2 Hartree   DENC   =     -1260.76982516
  -exchange  EXHF       =         0.00000000
  -V(xc)+E(xc)   XCENC  =        71.31870655
  PAW double counting   =       735.78067341     -723.71209424
  entropy T*S    EENTRO =         0.00000000
  eigenvalues    EBANDS =      -318.63786672
  atomic energy  EATOM  =      1164.82564804
  ---------------------------------------------------
  free energy    TOTEN  =       -41.84241555 eV

  energy without entropy =      -41.84241555  energy(sigma->0) =      -41.84241555


--------------------------------------------------------------------------------------------------------




----------------------------------------- Iteration    1(  16)  ---------------------------------------


    POTLOK:  cpu time    1.19: real time    1.19
    SETDIJ:  cpu time    0.00: real time    0.00
    EDDIAG:  cpu time    0.35: real time    0.35
  RMM-DIIS:  cpu time    1.39: real time    1.39
    ORTHCH:  cpu time    0.02: real time    0.02
       DOS:  cpu time    0.00: real time    0.00
    CHARGE:  cpu time    0.34: real time    0.33
    MIXING:  cpu time    0.04: real time    0.03
    --------------------------------------------
      LOOP:  cpu time    3.32: real time    3.33

 eigenvalue-minimisations  :    48
 total energy-change (2. order) : 0.3191291E-01  (-0.4855243E-02)
 number of electron   24.0000003 magnetization 
 augmentation part     1.1841321 magnetization 

 Broyden mixing:
  rms(total) = 0.30704E-01    rms(broyden)= 0.30696E-01
  rms(prec ) = 0.65400E-01
  weight for this iteration     100.00

 eigenvalues of (default mixing * dielectric matrix)
  average eigenvalue GAMMA=   1.5653
  0.7878  1.0197  2.2268  2.2268

 Free energy of the ion-electron system (eV)
  ---------------------------------------------------
  alpha Z        PSCENC =         2.03619615
  Ewald energy   TEWEN  =       287.31614643
  -1/2 Hartree   DENC   =     -1264.08407741
  -exchange  EXHF       =         0.00000000
  -V(xc)+E(xc)   XCENC  =        71.57004728
  PAW double counting   =       744.62466879     -732.53853208
  entropy T*S    EENTRO =         0.00000000
  eigenvalues    EBANDS =      -315.56059984
  atomic energy  EATOM  =      1164.82564804
  ---------------------------------------------------
  free energy    TOTEN  =       -41.81050264 eV

  energy without entropy =      -41.81050264  energy(sigma->0) =      -41.81050264


--------------------------------------------------------------------------------------------------------




----------------------------------------- Iteration    1(  17)  ---------------------------------------


    POTLOK:  cpu time    1.19: real time    1.19
    SETDIJ:  cpu time    0.00: real time    0.00
    EDDIAG:  cpu time    0.35: real time    0.35
  RMM-DIIS:  cpu time    1.38: real time    1.38
    ORTHCH:  cpu time    0.02: real time    0.02
       DOS:  cpu time    0.00: real time    0.00
    CHARGE:  cpu time    0.34: real time    0.34
    MIXING:  cpu time    0.04: real time    0.04
    --------------------------------------------
      LOOP:  cpu time    3.32: real time    3.33

 eigenvalue-minimisations  :    48
 total energy-change (2. order) : 0.1079859E-01  (-0.2691086E-02)
 number of electron   24.0000003 magnetization 
 augmentation part     1.1811026 magnetization 

 Broyden mixing:
  rms(total) = 0.20223E-01    rms(broyden)= 0.20214E-01
  rms(prec ) = 0.38439E-01
  weight for this iteration     100.00

 eigenvalues of (default mixing * dielectric matrix)
  average eigenvalue GAMMA=   1.6419
  2.4040  2.1548  1.7427  0.7912  1.1168

 Free energy of the ion-electron system (eV)
  ---------------------------------------------------
  alpha Z        PSCENC =         2.03619615
  Ewald energy   TEWEN  =       287.31614643
  -1/2 Hartree   DENC   =     -1266.05293999
  -exchange  EXHF       =         0.00000000
  -V(xc)+E(xc)   XCENC  =        71.64278904
  PAW double counting   =       744.00148331     -731.88497255
  entropy T*S    EENTRO =         0.00000000
  eigenvalues    EBANDS =      -313.68405448
  atomic energy  EATOM  =      1164.82564804
  ---------------------------------------------------
  free energy    TOTEN  =       -41.79970404 eV

  energy without entropy =      -41.79970404  energy(sigma->0) =      -41.79970404


--------------------------------------------------------------------------------------------------------




----------------------------------------- Iteration    1(  18)  ---------------------------------------


    POTLOK:  cpu time    1.18: real time    1.18
    SETDIJ:  cpu time    0.00: real time    0.00
    EDDIAG:  cpu time    0.36: real time    0.35
  RMM-DIIS:  cpu time    1.37: real time    1.37
    ORTHCH:  cpu time    0.02: real time    0.02
       DOS:  cpu time    0.00: real time    0.00
    CHARGE:  cpu time    0.34: real time    0.34
    MIXING:  cpu time    0.04: real time    0.04
    --------------------------------------------
      LOOP:  cpu time    3.31: real time    3.31

 eigenvalue-minimisations  :    48
 total energy-change (2. order) :-0.1311021E-02  (-0.1771804E-02)
 number of electron   24.0000003 magnetization 
 augmentation part     1.1847271 magnetization 

 Broyden mixing:
  rms(total) = 0.22546E-01    rms(broyden)= 0.22538E-01
  rms(prec ) = 0.32705E-01
  weight for this iteration     100.00

 eigenvalues of (default mixing * dielectric matrix)
  average eigenvalue GAMMA=   1.7292
  3.3233  2.3920  1.8152  0.7943  1.0252  1.0252

 Free energy of the ion-electron system (eV)
  ---------------------------------------------------
  alpha Z        PSCENC =         2.03619615
  Ewald energy   TEWEN  =       287.31614643
  -1/2 Hartree   DENC   =     -1266.73509062
  -exchange  EXHF       =         0.00000000
  -V(xc)+E(xc)   XCENC  =        71.66129536
  PAW double counting   =       742.71683301     -730.58844286
  entropy T*S    EENTRO =         0.00000000
  eigenvalues    EBANDS =      -313.03360057
  atomic energy  EATOM  =      1164.82564804
  ---------------------------------------------------
  free energy    TOTEN  =       -41.80101507 eV

  energy without entropy =      -41.80101507  energy(sigma->0) =      -41.80101507


--------------------------------------------------------------------------------------------------------




----------------------------------------- Iteration    1(  19)  ---------------------------------------


    POTLOK:  cpu time    1.18: real time    1.18
    SETDIJ:  cpu time    0.00: real time    0.00
    EDDIAG:  cpu time    0.35: real time    0.35
  RMM-DIIS:  cpu time    1.39: real time    1.38
    ORTHCH:  cpu time    0.02: real time    0.02
       DOS:  cpu time    0.00: real time    0.00
    CHARGE:  cpu time    0.33: real time    0.33
    MIXING:  cpu time    0.04: real time    0.04
    --------------------------------------------
      LOOP:  cpu time    3.31: real time    3.32

 eigenvalue-minimisations  :    48
 total energy-change (2. order) :-0.1503531E-02  (-0.6504454E-03)
 number of electron   24.0000003 magnetization 
 augmentation part     1.1825661 magnetization 

 Broyden mixing:
  rms(total) = 0.49507E-02    rms(broyden)= 0.49405E-02
  rms(prec ) = 0.11373E-01
  weight for this iteration     100.00

 eigenvalues of (default mixing * dielectric matrix)
  average eigenvalue GAMMA=   1.9141
  4.2035  2.6951  1.8502  1.8502  0.7973  1.0011  1.0011

 Free energy of the ion-electron system (eV)
  ---------------------------------------------------
  alpha Z        PSCENC =         2.03619615
  Ewald energy   TEWEN  =       287.31614643
  -1/2 Hartree   DENC   =     -1267.74348187
  -exchange  EXHF       =         0.00000000
  -V(xc)+E(xc)   XCENC  =        71.69506382
  PAW double counting   =       742.74749673     -730.62336721
  entropy T*S    EENTRO =         0.00000000
  eigenvalues    EBANDS =      -312.05622069
  atomic energy  EATOM  =      1164.82564804
  ---------------------------------------------------
  free energy    TOTEN  =       -41.80251860 eV

  energy without entropy =      -41.80251860  energy(sigma->0) =      -41.80251860


--------------------------------------------------------------------------------------------------------




----------------------------------------- Iteration    1(  20)  ---------------------------------------


    POTLOK:  cpu time    1.17: real time    1.17
    SETDIJ:  cpu time    0.00: real time    0.00
    EDDIAG:  cpu time    0.35: real time    0.35
  RMM-DIIS:  cpu time    1.40: real time    1.39
    ORTHCH:  cpu time    0.02: real time    0.02
       DOS:  cpu time    0.00: real time    0.00
    CHARGE:  cpu time    0.34: real time    0.35
    MIXING:  cpu time    0.04: real time    0.04
    --------------------------------------------
      LOOP:  cpu time    3.32: real time    3.32

 eigenvalue-minimisations  :    48
 total energy-change (2. order) :-0.6077399E-02  (-0.2237691E-03)
 number of electron   24.0000003 magnetization 
 augmentation part     1.1807696 magnetization 

 Broyden mixing:
  rms(total) = 0.81861E-02    rms(broyden)= 0.81832E-02
  rms(prec ) = 0.11139E-01
  weight for this iteration     100.00

 eigenvalues of (default mixing * dielectric matrix)
  average eigenvalue GAMMA=   2.0302
  5.5304  2.7633  2.2955  1.7814  0.8001  0.9865  1.0422  1.0422

 Free energy of the ion-electron system (eV)
  ---------------------------------------------------
  alpha Z        PSCENC =         2.03619615
  Ewald energy   TEWEN  =       287.31614643
  -1/2 Hartree   DENC   =     -1268.05398570
  -exchange  EXHF       =         0.00000000
  -V(xc)+E(xc)   XCENC  =        71.69269019
  PAW double counting   =       742.85589784     -730.73622252
  entropy T*S    EENTRO =         0.00000000
  eigenvalues    EBANDS =      -311.74496642
  atomic energy  EATOM  =      1164.82564804
  ---------------------------------------------------
  free energy    TOTEN  =       -41.80859600 eV

  energy without entropy =      -41.80859600  energy(sigma->0) =      -41.80859600


--------------------------------------------------------------------------------------------------------




----------------------------------------- Iteration    1(  21)  ---------------------------------------


    POTLOK:  cpu time    1.17: real time    1.17
    SETDIJ:  cpu time    0.00: real time    0.00
    EDDIAG:  cpu time    0.36: real time    0.35
  RMM-DIIS:  cpu time    1.38: real time    1.38
    ORTHCH:  cpu time    0.02: real time    0.02
       DOS:  cpu time    0.00: real time    0.00
    CHARGE:  cpu time    0.34: real time    0.34
    MIXING:  cpu time    0.04: real time    0.04
    --------------------------------------------
      LOOP:  cpu time    3.30: real time    3.31

 eigenvalue-minimisations  :    48
 total energy-change (2. order) :-0.1728906E-02  (-0.1416864E-03)
 number of electron   24.0000003 magnetization 
 augmentation part     1.1826500 magnetization 

 Broyden mixing:
  rms(total) = 0.28367E-02    rms(broyden)= 0.28330E-02
  rms(prec ) = 0.45944E-02
  weight for this iteration     100.00

 eigenvalues of (default mixing * dielectric matrix)
  average eigenvalue GAMMA=   2.2902
  6.1832  3.8904  2.7287  2.1559  1.8259  0.8006  0.9637  1.0319  1.0319

 Free energy of the ion-electron system (eV)
  ---------------------------------------------------
  alpha Z        PSCENC =         2.03619615
  Ewald energy   TEWEN  =       287.31614643
  -1/2 Hartree   DENC   =     -1267.89511318
  -exchange  EXHF       =         0.00000000
  -V(xc)+E(xc)   XCENC  =        71.68094682
  PAW double counting   =       742.68745088     -730.56385404
  entropy T*S    EENTRO =         0.00000000
  eigenvalues    EBANDS =      -311.89774600
  atomic energy  EATOM  =      1164.82564804
  ---------------------------------------------------
  free energy    TOTEN  =       -41.81032490 eV

  energy without entropy =      -41.81032490  energy(sigma->0) =      -41.81032490


--------------------------------------------------------------------------------------------------------




----------------------------------------- Iteration    1(  22)  ---------------------------------------


    POTLOK:  cpu time    1.17: real time    1.16
    SETDIJ:  cpu time    0.00: real time    0.00
    EDDIAG:  cpu time    0.35: real time    0.35
  RMM-DIIS:  cpu time    1.37: real time    1.37
    ORTHCH:  cpu time    0.02: real time    0.02
       DOS:  cpu time    0.00: real time    0.00
    CHARGE:  cpu time    0.34: real time    0.34
    MIXING:  cpu time    0.04: real time    0.04
    --------------------------------------------
      LOOP:  cpu time    3.30: real time    3.29

 eigenvalue-minimisations  :    47
 total energy-change (2. order) :-0.1761652E-02  (-0.2928377E-04)
 number of electron   24.0000003 magnetization 
 augmentation part     1.1824307 magnetization 

 Broyden mixing:
  rms(total) = 0.15876E-02    rms(broyden)= 0.15875E-02
  rms(prec ) = 0.21287E-02
  weight for this iteration     100.00

 eigenvalues of (default mixing * dielectric matrix)
  average eigenvalue GAMMA=   2.1842
  6.5665  3.9155  2.5467  2.2601  1.7347  0.8003  1.0381  1.0381  0.9709  0.9709

 Free energy of the ion-electron system (eV)
  ---------------------------------------------------
  alpha Z        PSCENC =         2.03619615
  Ewald energy   TEWEN  =       287.31614643
  -1/2 Hartree   DENC   =     -1267.98599796
  -exchange  EXHF       =         0.00000000
  -V(xc)+E(xc)   XCENC  =        71.68159782
  PAW double counting   =       742.93300757     -730.80946067
  entropy T*S    EENTRO =         0.00000000
  eigenvalues    EBANDS =      -311.80922394
  atomic energy  EATOM  =      1164.82564804
  ---------------------------------------------------
  free energy    TOTEN  =       -41.81208655 eV

  energy without entropy =      -41.81208655  energy(sigma->0) =      -41.81208655


--------------------------------------------------------------------------------------------------------




----------------------------------------- Iteration    1(  23)  ---------------------------------------


    POTLOK:  cpu time    1.16: real time    1.16
    SETDIJ:  cpu time    0.00: real time    0.00
    EDDIAG:  cpu time    0.36: real time    0.35
  RMM-DIIS:  cpu time    1.27: real time    1.28
    ORTHCH:  cpu time    0.02: real time    0.02
       DOS:  cpu time    0.00: real time    0.00
    CHARGE:  cpu time    0.34: real time    0.34
    MIXING:  cpu time    0.04: real time    0.04
    --------------------------------------------
      LOOP:  cpu time    3.20: real time    3.20

 eigenvalue-minimisations  :    44
 total energy-change (2. order) :-0.1303344E-03  (-0.4239457E-05)
 number of electron   24.0000003 magnetization 
 augmentation part     1.1821597 magnetization 

 Broyden mixing:
  rms(total) = 0.37543E-03    rms(broyden)= 0.37444E-03
  rms(prec ) = 0.74600E-03
  weight for this iteration     100.00

 eigenvalues of (default mixing * dielectric matrix)
  average eigenvalue GAMMA=   2.4335
  7.8848  4.7095  2.8715  2.5603  2.1113  1.7664  0.8004  1.0475  1.0475  0.9667
  1.0025

 Free energy of the ion-electron system (eV)
  ---------------------------------------------------
  alpha Z        PSCENC =         2.03619615
  Ewald energy   TEWEN  =       287.31614643
  -1/2 Hartree   DENC   =     -1267.99069301
  -exchange  EXHF       =         0.00000000
  -V(xc)+E(xc)   XCENC  =        71.68103171
  PAW double counting   =       742.87858949     -730.75535121
  entropy T*S    EENTRO =         0.00000000
  eigenvalues    EBANDS =      -311.80378450
  atomic energy  EATOM  =      1164.82564804
  ---------------------------------------------------
  free energy    TOTEN  =       -41.81221689 eV

  energy without entropy =      -41.81221689  energy(sigma->0) =      -41.81221689


--------------------------------------------------------------------------------------------------------




----------------------------------------- Iteration    1(  24)  ---------------------------------------


    POTLOK:  cpu time    1.17: real time    1.17
    SETDIJ:  cpu time    0.00: real time    0.00
    EDDIAG:  cpu time    0.35: real time    0.35
  RMM-DIIS:  cpu time    1.34: real time    1.34
    ORTHCH:  cpu time    0.02: real time    0.02
       DOS:  cpu time    0.00: real time    0.00
    CHARGE:  cpu time    0.34: real time    0.34
    MIXING:  cpu time    0.04: real time    0.04
    --------------------------------------------
      LOOP:  cpu time    3.26: real time    3.27

 eigenvalue-minimisations  :    44
 total energy-change (2. order) :-0.2381661E-03  (-0.2040511E-05)
 number of electron   24.0000003 magnetization 
 augmentation part     1.1821843 magnetization 

 Broyden mixing:
  rms(total) = 0.19613E-03    rms(broyden)= 0.19604E-03
  rms(prec ) = 0.29214E-03
  weight for this iteration     100.00

 eigenvalues of (default mixing * dielectric matrix)
  average eigenvalue GAMMA=   2.3452
  8.0672  4.7542  3.0437  2.4696  2.1772  1.6714  0.8004  1.0619  1.0619  1.0450
  1.0450  0.9445

 Free energy of the ion-electron system (eV)
  ---------------------------------------------------
  alpha Z        PSCENC =         2.03619615
  Ewald energy   TEWEN  =       287.31614643
  -1/2 Hartree   DENC   =     -1267.98049048
  -exchange  EXHF       =         0.00000000
  -V(xc)+E(xc)   XCENC  =        71.68025540
  PAW double counting   =       742.79162214     -730.66822185
  entropy T*S    EENTRO =         0.00000000
  eigenvalues    EBANDS =      -311.81361088
  atomic energy  EATOM  =      1164.82564804
  ---------------------------------------------------
  free energy    TOTEN  =       -41.81245505 eV

  energy without entropy =      -41.81245505  energy(sigma->0) =      -41.81245505


--------------------------------------------------------------------------------------------------------




----------------------------------------- Iteration    1(  25)  ---------------------------------------


    POTLOK:  cpu time    1.18: real time    1.18
    SETDIJ:  cpu time    0.00: real time    0.00
    EDDIAG:  cpu time    0.36: real time    0.35
  RMM-DIIS:  cpu time    1.13: real time    1.13
    ORTHCH:  cpu time    0.02: real time    0.02
       DOS:  cpu time    0.00: real time    0.00
    CHARGE:  cpu time    0.34: real time    0.34
    MIXING:  cpu time    0.04: real time    0.04
    --------------------------------------------
      LOOP:  cpu time    3.07: real time    3.07

 eigenvalue-minimisations  :    36
 total energy-change (2. order) :-0.1890657E-04  (-0.2251708E-06)
 number of electron   24.0000003 magnetization 
 augmentation part     1.1821280 magnetization 

 Broyden mixing:
  rms(total) = 0.23162E-03    rms(broyden)= 0.23156E-03
  rms(prec ) = 0.32029E-03
  weight for this iteration     100.00

 eigenvalues of (default mixing * dielectric matrix)
  average eigenvalue GAMMA=   2.4434
  8.2615  5.1583  3.2514  2.8470  2.3529  2.3529  1.7143  1.0451  1.0451  0.8004
  0.9880  0.9880  0.9592

 Free energy of the ion-electron system (eV)
  ---------------------------------------------------
  alpha Z        PSCENC =         2.03619615
  Ewald energy   TEWEN  =       287.31614643
  -1/2 Hartree   DENC   =     -1267.99560610
  -exchange  EXHF       =         0.00000000
  -V(xc)+E(xc)   XCENC  =        71.68121222
  PAW double counting   =       742.82275475     -730.69956280
  entropy T*S    EENTRO =         0.00000000
  eigenvalues    EBANDS =      -311.79926264
  atomic energy  EATOM  =      1164.82564804
  ---------------------------------------------------
  free energy    TOTEN  =       -41.81247396 eV

  energy without entropy =      -41.81247396  energy(sigma->0) =      -41.81247396


--------------------------------------------------------------------------------------------------------




----------------------------------------- Iteration    1(  26)  ---------------------------------------


    POTLOK:  cpu time    1.16: real time    1.16
    SETDIJ:  cpu time    0.00: real time    0.00
    EDDIAG:  cpu time    0.36: real time    0.35
  RMM-DIIS:  cpu time    1.10: real time    1.10
    ORTHCH:  cpu time    0.01: real time    0.01
       DOS:  cpu time    0.00: real time    0.00
    CHARGE:  cpu time    0.33: real time    0.33
    MIXING:  cpu time    0.04: real time    0.04
    --------------------------------------------
      LOOP:  cpu time    3.00: real time    3.02

 eigenvalue-minimisations  :    35
 total energy-change (2. order) :-0.2154817E-04  (-0.1732796E-06)
 number of electron   24.0000003 magnetization 
 augmentation part     1.1821409 magnetization 

 Broyden mixing:
  rms(total) = 0.90722E-04    rms(broyden)= 0.90695E-04
  rms(prec ) = 0.12060E-03
  weight for this iteration     100.00

 eigenvalues of (default mixing * dielectric matrix)
  average eigenvalue GAMMA=   2.3448
  8.2714  5.2306  3.4057  2.7964  2.4352  2.2679  1.6629  1.0445  1.0445  0.8004
  1.0515  0.9718  0.9225  0.9225

 Free energy of the ion-electron system (eV)
  ---------------------------------------------------
  alpha Z        PSCENC =         2.03619615
  Ewald energy   TEWEN  =       287.31614643
  -1/2 Hartree   DENC   =     -1267.98864625
  -exchange  EXHF       =         0.00000000
  -V(xc)+E(xc)   XCENC  =        71.68089872
  PAW double counting   =       742.82396506     -730.70073784
  entropy T*S    EENTRO =         0.00000000
  eigenvalues    EBANDS =      -311.80596581
  atomic energy  EATOM  =      1164.82564804
  ---------------------------------------------------
  free energy    TOTEN  =       -41.81249551 eV

  energy without entropy =      -41.81249551  energy(sigma->0) =      -41.81249551


--------------------------------------------------------------------------------------------------------




----------------------------------------- Iteration    1(  27)  ---------------------------------------


    POTLOK:  cpu time    1.17: real time    1.17
    SETDIJ:  cpu time    0.00: real time    0.00
    EDDIAG:  cpu time    0.36: real time    0.36
  RMM-DIIS:  cpu time    1.05: real time    1.05
    ORTHCH:  cpu time    0.01: real time    0.01
       DOS:  cpu time    0.00: real time    0.00
    --------------------------------------------
      LOOP:  cpu time    2.60: real time    2.60

 eigenvalue-minimisations  :    33
 total energy-change (2. order) :-0.1087842E-05  (-0.4127446E-07)
 number of electron   24.0000003 magnetization 
 augmentation part     1.1821409 magnetization 

 Free energy of the ion-electron system (eV)
  ---------------------------------------------------
  alpha Z        PSCENC =         2.03619615
  Ewald energy   TEWEN  =       287.31614643
  -1/2 Hartree   DENC   =     -1267.98507128
  -exchange  EXHF       =         0.00000000
  -V(xc)+E(xc)   XCENC  =        71.68070210
  PAW double counting   =       742.81793114     -730.69463151
  entropy T*S    EENTRO =         0.00000000
  eigenvalues    EBANDS =      -311.80941766
  atomic energy  EATOM  =      1164.82564804
  ---------------------------------------------------
  free energy    TOTEN  =       -41.81249660 eV

  energy without entropy =      -41.81249660  energy(sigma->0) =      -41.81249660


--------------------------------------------------------------------------------------------------------




 average (electrostatic) potential at core
  the test charge radii are     0.5201  0.6991  0.7215  0.9892
  (the norm of the test charge is              1.0000)
       1 -44.1335       2 -40.2692       3 -40.1566       4 -40.1567       5 -61.8432
       6 -79.9139       7 -83.6331       8 -93.1143
 
 
 
 E-fermi :  -6.0324     XC(G=0):  -1.4463     alpha+bet : -0.6005
   add alpha+bet to get absolut eigen values

 k-point   1 :       0.0000    0.0000    0.0000
  band No.  band energies     occupation 
      1     -29.3855      2.00000
      2     -24.3267      2.00000
      3     -14.1204      2.00000
      4     -13.3590      2.00000
      5     -11.8359      2.00000
      6     -11.8354      2.00000
      7     -10.9986      2.00000
      8      -9.3005      2.00000
      9      -8.5104      2.00000
     10      -8.4242      2.00000
     11      -7.2421      2.00000
     12      -6.5659      2.00000
     13      -2.2921      0.00000
     14      -2.2807      0.00000
     15      -0.3833      0.00000
     16      -0.2250      0.00000
     17       0.7697      0.00000
     18       1.0413      0.00000
     19       1.0961      0.00000
     20       1.2314      0.00000
     21       1.2326      0.00000
     22       1.5081      0.00000
     23       1.8510      0.00000
     24       1.9282      0.00000


--------------------------------------------------------------------------------------------------------


 soft charge-density along one line, spin component           1
         0         1         2         3         4         5         6         7         8         9
 total charge-density along one line
 
 pseudopotential strength for first ion, spin component:           1
 -2.378  -0.016  -0.002   0.000   0.002
 -0.016   0.049  -0.002   0.000   0.002
 -0.002  -0.002  -0.323   0.000  -0.004
  0.000   0.000   0.000  -0.326   0.000
  0.002   0.002  -0.004   0.000  -0.319
 total augmentation occupancy for first ion, spin component:           1
  1.616  -0.597   0.244   0.000  -0.377
 -0.597   0.401  -0.113   0.000   0.161
  0.244  -0.113   0.066   0.000  -0.052
  0.000   0.000   0.000   0.035   0.000
 -0.377   0.161  -0.052   0.000   0.106


------------------------ aborting loop because EDIFF is reached ----------------------------------------




--------------------------------------------------------------------------------------------------------



  FREE ENERGIE OF THE ION-ELECTRON SYSTEM (eV)
  ---------------------------------------------------
  free  energy   TOTEN  =       -41.812497 eV

  energy  without entropy=      -41.812497  energy(sigma->0) =      -41.812497
 
    CHARGE:  cpu time    0.33: real time    0.33
    FORLOC:  cpu time    0.07: real time    0.07
    FORNL :  cpu time    0.53: real time    0.53
    STRESS:  cpu time    1.57: real time    1.57
    FORCOR:  cpu time    1.06: real time    1.06
    FORHAR:  cpu time    0.37: real time    0.37
    MIXING:  cpu time    0.04: real time    0.04

  FORCE on cell =-STRESS in cart. coord.  units (eV):
  Direction    XX          YY          ZZ          XY          YZ          ZX
  --------------------------------------------------------------------------------------
  Alpha Z     2.03620     2.03620     2.03620
  Ewald     691.46339   -69.69545  -334.45219  -160.28846     0.00000     0.00000
  Hartree   810.95349   310.24860   146.78138   -79.24527     0.00000    -0.00001
  E(xc)     -97.62614   -98.66880   -99.16791    -0.60137     0.00000     0.00000
  Local   -1750.14154  -521.09428  -110.31665   222.67736     0.00001     0.00001
  n-local   -25.08754   -19.48251   -17.29500     4.66270     0.00025    -0.00109
  augment     6.79351     7.93543     8.73492     0.63516    -0.00004     0.00002
  Kinetic   361.20271   388.22728   403.18300    12.15084    -0.00003     0.00001
  Fock        0.00000     0.00000     0.00000     0.00000     0.00000     0.00000
  -------------------------------------------------------------------------------------
  Total      -0.40592    -0.49353    -0.49625    -0.00905     0.00000     0.00000
  in kB      -0.65036    -0.79073    -0.79508    -0.01450     0.00000     0.00000
  external pressure =       -0.75 kB  Pullay stress =        0.00 kB


 VOLUME and BASIS-vectors are now :
 -----------------------------------------------------------------------------
  energy-cutoff  :      450.00
  volume of cell :     1000.00
      direct lattice vectors                 reciprocal lattice vectors
    10.000000000  0.000000000  0.000000000     0.100000000  0.000000000  0.000000000
     0.000000000 10.000000000  0.000000000     0.000000000  0.100000000  0.000000000
     0.000000000  0.000000000 10.000000000     0.000000000  0.000000000  0.100000000

  length of vectors
    10.000000000 10.000000000 10.000000000     0.100000000  0.100000000  0.100000000


 FORCES acting on ions
    electron-ion (+dipol)            ewald-force                    non-local-force                 convergence-correction
 -----------------------------------------------------------------------------------------------
   -.662E+02 0.361E+02 -.794E-06   0.730E+02 -.405E+02 -.230E-08   -.687E+01 0.444E+01 0.000E+00   0.212E-03 -.143E-03 0.359E-10
   0.284E+02 -.246E+02 -.276E-06   -.305E+02 0.269E+02 -.204E-08   0.214E+01 -.228E+01 0.000E+00   -.736E-04 -.754E-05 0.171E-09
   0.109E+02 0.220E+02 -.293E+02   -.113E+02 -.237E+02 0.317E+02   0.378E+00 0.175E+01 -.246E+01   0.466E-05 -.662E-05 0.254E-04
   0.109E+02 0.220E+02 0.293E+02   -.113E+02 -.237E+02 -.317E+02   0.378E+00 0.175E+01 0.246E+01   0.466E-05 -.662E-05 -.254E-04
   0.167E+03 -.832E+02 -.707E-06   -.191E+03 0.958E+02 -.444E-08   0.241E+02 -.126E+02 0.000E+00   0.338E-03 -.661E-04 -.566E-09
   -.262E+02 -.112E+03 -.102E-03   0.231E+02 0.150E+03 -.141E-07   0.316E+01 -.377E+02 0.000E+00   0.954E-03 -.882E-03 0.111E-08
   -.195E+03 0.117E+03 -.719E-04   0.249E+03 -.145E+03 -.604E-08   -.538E+02 0.280E+02 0.000E+00   -.742E-03 0.593E-03 0.541E-09
   0.989E+02 0.391E+02 -.168E-05   -.101E+03 -.401E+02 0.167E-06   0.169E+01 0.102E+01 0.000E+00   -.121E-03 -.218E-03 0.547E-09
 -----------------------------------------------------------------------------------------------
   0.288E+02 0.156E+02 -.178E-03   0.000E+00 -.284E-13 0.360E-15   -.288E+02 -.156E+02 0.000E+00   0.577E-03 -.737E-03 0.192E-08
 
 
 POSITION                                       TOTAL-FORCE (eV/Angst)
 -----------------------------------------------------------------------------------
      4.73330      5.58579      5.33333         0.004230      0.007496      0.000000
      1.43848      6.45843      5.33333         0.004652     -0.004046      0.000000
      2.27731      4.51308      6.54283        -0.005354      0.004441     -0.004168
      2.27731      4.51308      4.12384        -0.005354      0.004441      0.004168
      6.61677      4.43569      5.33333        -0.003625      0.008090      0.000000
      3.93261      6.14206      5.33333         0.005874     -0.010314      0.000000
      7.62868      3.90899      5.33333         0.007598     -0.004560      0.000000
      2.46155      5.37666      5.33333        -0.008022     -0.005549      0.000000
 -----------------------------------------------------------------------------------
    total drift:                               -0.003238     -0.001265     -0.000178


--------------------------------------------------------------------------------------------------------


    POTLOK:  cpu time    1.19: real time    1.19


--------------------------------------------------------------------------------------------------------




--------------------------------------------------------------------------------------------------------


  
 reached required accuracy - stopping structural energy minimisation
 writing wavefunctions
     LOOP+:  cpu time   75.23: real time   75.64
    4ORBIT:  cpu time    0.00: real time    0.00

 total amount of memory used by VASP on root node  85688. kBytes
========================================================================

   base      :    30000. kBytes
   nonlr-proj:     1818. kBytes
   fftplans  :    13314. kBytes
   grid      :    39482. kBytes
   one-center:       24. kBytes
   wavefun   :     1050. kBytes
 
  
  
 General timing and accounting informations for this job:
 ========================================================
  
                  Total CPU time used (sec):       80.157
                            User time (sec):       71.436
                          System time (sec):        8.721
                         Elapsed time (sec):       82.217
  
                   Maximum memory used (kb):           0.
                   Average memory used (kb):           0.
  
                          Minor page faults:       673025
                          Major page faults:           61
                 Voluntary context switches:         3072
