 vasp.4.6.35 3Apr08 complex 
 executed on             LinuxIFC date 2010.07.19  18:22:59
 running on    8 nodes
 distr:  one band on    1 nodes,    8 groups


--------------------------------------------------------------------------------------------------------


 INCAR:
 POTCAR:   PAW _ PBE H_h 07Sep2000                  
 POTCAR:   PAW _ PBE Al 04Jan2001                   
 POTCAR:   PAW _ PBE H_h 07Sep2000p                  
   VRHFIN =H: ultrasoft test                                                    
   LEXCH  = PE                                                                  
   EATOM  =    12.4943 eV,     .9183 Ry                                         
                                                                                
   TITEL  = PAW_PBE H_h 07Sep2000                                               
   LULTRA =        F    use ultrasoft PP ?                                      
   IUNSCR =        0    unscreen: 0-lin 1-nonlin 2-no                           
   RPACOR =     .000    partial core radius                                     
   POMASS =    1.000; ZVAL   =    1.000    mass and valenz                      
   RCORE  =     .800    outmost cutoff radius                                   
   RWIGS  =     .700; RWIGS  =     .370    wigner-seitz radius (au A)           
   ENMAX  =  700.000; ENMIN  =  500.000 eV                                      
   RCLOC  =     .701    cutoff for local pot                                    
   LCOR   =        T    correct aug charges                                     
   LPAW   =        T    paw PP                                                  
   EAUG   = 1000.000                                                            
   RMAX   =    1.606    core radius for proj-oper                               
   RAUG   =    1.000    factor for augmentation sphere                          
   RDEP   =     .817    radius for radial grids                                 
   QCUT   =   -7.783; QGAM   =   15.567    optimization parameters              
                                                                                
   Description                                                                  
     l     E      TYP  RCUT    TYP  RCUT                                        
     0   .000     23   .800                                                     
     0   .500     23   .800                                                     
     1  -.500     23   .800                                                     
  local pseudopotential read in
  atomic valenz-charges read in
  non local Contribution for L=           0  read in
    real space projection operators read in
  non local Contribution for L=           0  read in
    real space projection operators read in
  non local Contribution for L=           1  read in
    real space projection operators read in
    PAW grid and wavefunctions read in
 
   number of l-projection  operators is LMAX  =           3
   number of lm-projection operators is LMMAX =           5
 
 POTCAR:   PAW_PBE Al 04Jan2001                   
   VRHFIN =Al: s2p1                                                             
   LEXCH  = PE                                                                  
   EATOM  =    53.5387 eV,    3.9350 Ry                                         
                                                                                
   TITEL  = PAW_PBE Al 04Jan2001                                                
   LULTRA =        F    use ultrasoft PP ?                                      
   IUNSCR =        1    unscreen: 0-lin 1-nonlin 2-no                           
   RPACOR =    1.500    partial core radius                                     
   POMASS =   26.982; ZVAL   =    3.000    mass and valenz                      
   RCORE  =    1.900    outmost cutoff radius                                   
   RWIGS  =    2.650; RWIGS  =    1.402    wigner-seitz radius (au A)           
   ENMAX  =  240.300; ENMIN  =  180.225 eV                                      
   ICORE  =        2    local potential                                         
   LCOR   =        T    correct aug charges                                     
   LPAW   =        T    paw PP                                                  
   EAUG   =  291.052                                                            
   DEXC   =    -.041                                                            
   RMAX   =    2.974    core radius for proj-oper                               
   RAUG   =    1.300    factor for augmentation sphere                          
   RDEP   =    1.966    radius for radial grids                                 
   QCUT   =   -4.203; QGAM   =    8.405    optimization parameters              
                                                                                
   Description                                                                  
     l     E      TYP  RCUT    TYP  RCUT                                        
     0   .000     23  1.900                                                     
     0   .000     23  1.900                                                     
     1   .000     23  1.900                                                     
     1  1.000     23  1.900                                                     
     2   .000      7  1.900                                                     
  local pseudopotential read in
  partial core-charges read in
  atomic valenz-charges read in
  non local Contribution for L=           0  read in
    real space projection operators read in
  non local Contribution for L=           0  read in
    real space projection operators read in
  non local Contribution for L=           1  read in
    real space projection operators read in
  non local Contribution for L=           1  read in
    real space projection operators read in
    PAW grid and wavefunctions read in
 
   number of l-projection  operators is LMAX  =           4
   number of lm-projection operators is LMMAX =           8
 

 ----------------------------------------------------------------------------- 
|                                                                             |
|  ADVICE TO THIS USER RUNNING 'VASP/VAMP'   (HEAR YOUR MASTER'S VOICE ...):  |
|                                                                             |
|      You have a (more or less) 'small supercell' and for smaller cells      |
|      it is recommended  to use the reciprocal-space projection scheme!      |
|      The real space optimization is not  efficient for small cells and it   |
|      is also less accurate ...                                              |
|      Therefore set LREAL=.FALSE. in the  INCAR file                         |
|                                                                             |
 ----------------------------------------------------------------------------- 

 Optimization of the real space projectors (new method)

 maximal supplied QI-value         = 47.24
 optimisation between [QCUT,QGAM] = [ 15.12, 30.71] = [ 64.00,264.06] Ry 
 Optimized for a Real-space Cutoff    0.89 Angstroem

   l    n(q)    QCUT    max X(q) W(low)/X(q) W(high)/X(q)  e(spline) 
   0      8    15.118     3.731    0.24E-04    0.47E-04    0.54E-07
   0      8    15.118    31.371    0.24E-03    0.50E-03    0.21E-06
   1      8    15.118     1.978    0.99E-04    0.27E-04    0.24E-06
 Optimization of the real space projectors (new method)

 maximal supplied QI-value         = 19.84
 optimisation between [QCUT,QGAM] = [ 15.28, 30.56] = [ 65.37,261.47] Ry 
 Optimized for a Real-space Cutoff    1.04 Angstroem

   l    n(q)    QCUT    max X(q) W(low)/X(q) W(high)/X(q)  e(spline) 
   0      9    15.278    13.410    0.16E-04    0.30E-05    0.29E-07
   0      9    15.278   140.052    0.12E-03    0.63E-04    0.31E-06
   1      9    15.278     9.624    0.19E-04    0.41E-04    0.28E-07
   1      9    15.278    53.353    0.21E-03    0.20E-03    0.20E-06
 PAW_PBE H_h 07Sep2000                  :
 energy of atom  1       EATOM=  -12.4943
 kinetic energy error for atom=    0.0015 (will be added to EATOM!!)
 PAW_PBE Al 04Jan2001                   :
 energy of atom  2       EATOM=  -53.5387
 kinetic energy error for atom=    0.0001 (will be added to EATOM!!)
 
 EXHCAR: internal setup
 exchange correlation table for  LEXCH =        8
   RHO(1)=    0.500       N(1)  =     2000
   RHO(2)=  100.500       N(2)  =     4000
 
 POSCAR:  H 6   Al 2                             
  positions in cartesian coordinates
  No initial velocities read in
 


--------------------------------------------------------------------------------------------------------


 ion  position               nearest neighbor table
   1  0.878  0.622  0.250-   7 1.72   8 1.72
   2  0.250  0.878  0.622-   8 1.72   7 1.72
   3  0.622  0.250  0.878-   7 1.72   8 1.72
   4  0.122  0.378  0.750-   8 1.72   7 1.72
   5  0.750  0.122  0.378-   7 1.72   8 1.72
   6  0.378  0.750  0.122-   8 1.72   7 1.72
   7  0.000  0.000  0.000-   1 1.72   4 1.72   3 1.72   6 1.72   5 1.72   2 1.72   8 3.24   8 3.24
                             8 3.24   8 3.24   8 3.24   8 3.24
   8  0.500  0.500  0.500-   4 1.72   6 1.72   2 1.72   5 1.72   3 1.72   1 1.72   7 3.24   7 3.24
                             7 3.24   7 3.24   7 3.24   7 3.24
 
  LATTYP: Found a trigonal (rhomboedric) cell.
 ALAT       =     4.6988904738
 COS(alpha) =     0.5517061931
  
  Lattice vectors:
  
 A1 = (   2.5688045527,   0.0000000000,   3.9345666667)
 A2 = (  -1.2844022764,   2.2246500000,   3.9345666667)
 A3 = (  -1.2844022764,  -2.2246500000,   3.9345666667)
 Subroutine PRICEL returns:
 Original cell was already a primitive cell.
 

Analysis of symmetry for initial positions (statically):

 Routine SETGRP: Setting up the symmetry group for a 
 trigonal (rhombohedral) supercell.


 Subroutine GETGRP returns: Found 12 space group operations
 (whereof  6 operations were pure point group operations)
 out of a pool of 12 trial point group operations.


The static configuration has the point symmetry S_6 .
 The point group associated with its full space group is D_3d.

Analysis of symmetry for dynamics (positions and initial velocities):

 Subroutine DYNSYM returns: Found 12 space group operations
 (whereof  6 operations were pure point group operations)
 out of a pool of 12 trial space group operations
 (whereof  6 operations were pure point group operations)
 and found also     1 'primitive' translations


The dynamic configuration has the point symmetry S_6 .
 The point group associated with its full space group is D_3d.
 
 
 KPOINTS: 4x4x4                                   

Automatic generation of k-mesh.
 
 Subroutine IBZKPT returns following result:
 ===========================================
 
 Found     10 irreducible k-points:
 
 Following reciprocal coordinates:
            Coordinates               Weight
  0.125000  0.125000  0.125000      2.000000
  0.375000  0.125000  0.125000      6.000000
 -0.375000  0.125000  0.125000      6.000000
 -0.125000  0.125000  0.125000      6.000000
  0.375000  0.375000  0.125000      6.000000
 -0.375000  0.375000  0.125000     12.000000
 -0.125000  0.375000  0.125000     12.000000
 -0.375000 -0.375000  0.125000      6.000000
  0.375000  0.375000  0.375000      2.000000
 -0.375000  0.375000  0.375000      6.000000
 
 Following cartesian coordinates:
            Coordinates               Weight
  0.000000  0.000000  0.031770      2.000000
  0.064881  0.000000  0.052949      6.000000
 -0.129762  0.000000 -0.010590      6.000000
 -0.064881  0.000000  0.010590      6.000000
  0.032441  0.056189  0.074129      6.000000
 -0.162203  0.056189  0.010590     12.000000
 -0.097322  0.056189  0.031770     12.000000
 -0.064881 -0.112377 -0.052949      6.000000
  0.000000  0.000000  0.095309      2.000000
 -0.194643  0.000000  0.031770      6.000000
 


--------------------------------------------------------------------------------------------------------




 Dimension of arrays:
   k-Points           NKPTS =     10   number of bands    NBANDS=     16
   number of dos      NEDOS =    301   number of ions     NIONS =      8
   non local maximal  LDIM  =      4   non local SUM 2l+1 LMDIM =      8
   total plane-waves  NPLWV = 110592
   max r-space proj   IRMAX =   7683   max aug-charges    IRDMAX=  64001
   dimension x,y,z NGX =    48 NGY =   48 NGZ =   48
   dimension x,y,z NGXF=    96 NGYF=   96 NGZF=   96
   support grid    NGXF=    96 NGYF=   96 NGZF=   96
   ions per type =               6   2
 NGX,Y,Z   is equivalent  to a cutoff of  16.98, 16.98, 16.98 a.u.
 NGXF,Y,Z  is equivalent  to a cutoff of  33.96, 33.96, 33.96 a.u.


 I would recommend the setting:
   dimension x,y,z NGX =    46 NGY =   46 NGZ =   46
 SYSTEM =  idruro di alluminio                     
 POSCAR =   H 6   Al 2                             

 Startparameter for this run:
   NWRITE =      2    write-flag & timer
   PREC   = acc       medium, high low
   ISTART =      0    job   : 0-new  1-cont  2-samecut
   ICHARG =      2    charge: 1-file 2-atom 10-const
   ISPIN  =      1    spin polarized calculation?
   LNONCOLLINEAR =      F non collinear calculations
   LSORBIT =      F    spin-orbit coupling
   INIWAV =      1    electr: 0-lowe 1-rand  2-diag
   LASPH  =      F    aspherical Exc in radial PAW
   METAGGA=      F    non-selfconsistent MetaGGA calc.

 Electronic Relaxation 1
   ENCUT  =  900.0 eV  66.15 Ry    8.13 a.u.  11.49 11.49 11.49*2*pi/ulx,y,z
   ENINI  =  900.0     initial cutoff
   ENAUG  = 1000.0 eV  augmentation charge cutoff
   NELM   =     60;   NELMIN=  2; NELMDL=  0     # of ELM steps 
   EDIFF  = 0.1E-08   stopping-criterion for ELM
   LREAL  =      T    real-space projection
   LCOMPAT=      F    compatible to vasp.4.4
   LREAL_COMPAT= F    compatible to vasp.4.5.1-3
   GGA_COMPAT  = T    GGA compatible to vasp.4.4-vasp.4.6
   LMAXPAW     = -100 max onsite density
   LMAXMIX     =    2 max onsite mixed and CHGCAR
   VOSKOWN=      0    Vosko Wilk Nusair interpolation
   ROPT   =   -0.00025  -0.00025
 Ionic relaxation
   EDIFFG = 0.1E-06   stopping-criterion for IOM
   NSW    =     50    number of steps for IOM
   NBLOCK =      1;   KBLOCK =     50    inner block; outer block 
   IBRION =      2    ionic relax: 0-MD 1-quasi-New 2-CG
   NFREE  =      1    steps in history (QN), initial steepest desc. (CG)
   ISIF   =      3    stress and relaxation
   IWAVPR =     11    prediction:  0-non 1-charg 2-wave 3-comb
   ISYM   =      2    0-nonsym 1-usesym 2-fastsym
   LCORR  =      T    Harris-Foulkes like correction to forces

   POTIM  =   0.50    time-step for ionic-motion
   TEIN   =    0.0    initial temperature
   TEBEG  =    0.0;   TEEND  =   0.0 temperature during run
   SMASS  =  -3.00    Nose mass-parameter (am)
   estimated Nose-frequenzy (Omega)   =  0.10E-29 period in steps =****** mass=  -0.505E-27a.u.
   NPACO  =    256;   APACO  = 16.0  distance and # of slots for P.C.
   PSTRESS=    0.0 pullay stress

  Mass of Ions in am
   POMASS =   1.00 26.98
  Ionic Valenz
   ZVAL   =   1.00  3.00
  Atomic Wigner-Seitz radii
   RWIGS  =  -1.00 -1.00
   NELECT =      12.0000    total number of electrons
   NUPDOWN=      -1.0000    fix difference up-down

 DOS related values:
   EMIN   =  10.00;   EMAX   =-10.00  energy-range for DOS
   ISMEAR =     0;   SIGMA  =   0.10  broadening in eV -4-tet -1-fermi 0-gaus

 Electronic relaxation 2 (details)
   IALGO  =     48    algorithm
   LDIAG  =      T    sub-space diagonalisation
   IMIX   =      4    mixing-type and parameters
     AMIX     =   0.40;   BMIX     =  1.00
     AMIX_MAG =   1.60;   BMIX_MAG =  1.00
     AMIN     =   0.10
     WC   =   100.;   INIMIX=   1;  MIXPRE=   1

 Intra band minimization:
   WEIMIN = 0.0010     energy-eigenvalue tresh-hold
   EBREAK =  0.23E-10  absolut break condition
   DEPER  =   0.30     relativ break condition  

   TIME   =   0.10     timestep for ELM

  volume/ion in A,a.u.               =       8.43        56.90
  Fermi-wavevector in a.u.,eV,Ry     =   0.920729 11.534217  0.847741

 Second variation
   LSECVAR=     F    do a second variation
 
 Write flags
   LWAVE  =      T    write WAVECAR
   LCHARG =      T    write CHGCAR
   LVTOT  =      F    write LOCPOT, local potential
   LELF   =      F    write electronic localiz. function (ELF)
   LORBIT =      0    0 simple, 1 ext, 2 COOP (PROOUT)


 Dipole corrections
   IDIPOL =      0    1-x, 2-y, 3-z
   LDIPOL =      F    correct potential



--------------------------------------------------------------------------------------------------------


 conjugate gradient relaxation of ions
 charge density will be updated during run
 non-spin polarized calculation
 RMM-DIIS sequential band-by-band
 performe sub-space diagonalisation
    before iterative eigenvector-optimisation
 modified Broyden-mixing scheme, WC =      100.0
 initial mixing is a Kerker type mixing with AMIX =  0.4000 and BMIX =      1.0000
 Hartree-type preconditioning will be used
 using additional bands           10
 real space projection scheme for non local part
 use partial core corrections
 calculate Harris-corrections to forces 
   (improved forces if not selfconsistent)
 use gradient corrections 
 use of overlap-Matrix (Vanderbilt PP)
 Gauss-broadening in eV      SIGMA  =   0.10


--------------------------------------------------------------------------------------------------------


  energy-cutoff  :      900.00
  volume of cell :       67.45
      direct lattice vectors                 reciprocal lattice vectors
     2.568804553  0.000000000  3.934566667     0.259524091  0.000000000  0.084719198
    -1.284402276  2.224650000  3.934566667    -0.129762046  0.224754456  0.084719198
    -1.284402276 -2.224650000  3.934566667    -0.129762046 -0.224754456  0.084719198

  length of vectors
     4.698890474  4.698890474  4.698890474     0.273002008  0.273002008  0.273002008


 
 k-points in units of 2pi/SCALE and weight: 4x4x4                                   
   0.00000000  0.00000000  0.03176970       0.031
   0.06488102  0.00000000  0.05294950       0.094
  -0.12976205  0.00000000 -0.01058990       0.094
  -0.06488102  0.00000000  0.01058990       0.094
   0.03244051  0.05618861  0.07412930       0.094
  -0.16220256  0.05618861  0.01058990       0.188
  -0.09732153  0.05618861  0.03176970       0.188
  -0.06488102 -0.11237723 -0.05294950       0.094
   0.00000000  0.00000000  0.09530910       0.031
  -0.19464307  0.00000000  0.03176970       0.094
 
 k-points in reciprocal lattice and weights: 4x4x4                                   
   0.12500000  0.12500000  0.12500000       0.031
   0.37500000  0.12500000  0.12500000       0.094
  -0.37500000  0.12500000  0.12500000       0.094
  -0.12500000  0.12500000  0.12500000       0.094
   0.37500000  0.37500000  0.12500000       0.094
  -0.37500000  0.37500000  0.12500000       0.188
  -0.12500000  0.37500000  0.12500000       0.188
  -0.37500000 -0.37500000  0.12500000       0.094
   0.37500000  0.37500000  0.37500000       0.031
  -0.37500000  0.37500000  0.37500000       0.094
 
 position of ions in fractional coordinates (direct lattice) 
   0.87800000  0.62200000  0.25000000
   0.25000000  0.87800000  0.62200000
   0.62200000  0.25000000  0.87800000
   0.12200000  0.37800000  0.75000000
   0.75000000  0.12200000  0.37800000
   0.37800000  0.75000000  0.12200000
   0.00000000  0.00000000  0.00000000
   0.50000000  0.50000000  0.50000000
 
 position of ions in cartesian coordinates  (Angst):
   1.13541161  0.82756980  6.88549167
  -1.28440228  0.56951040  6.88549167
   0.14899066 -1.39708020  6.88549167
  -1.13541161 -0.82756980  4.91820833
   1.28440228 -0.56951040  4.91820833
  -0.14899066  1.39708020  4.91820833
   0.00000000  0.00000000  0.00000000
   0.00000000  0.00000000  5.90185000
 


--------------------------------------------------------------------------------------------------------


 k-point  1 :  0.12500.12500.1250  plane waves:   4111
 k-point  2 :  0.37500.12500.1250  plane waves:   4132
 k-point  3 :  -.37500.12500.1250  plane waves:   4154
 k-point  4 :  -.12500.12500.1250  plane waves:   4138
 k-point  5 :  0.37500.37500.1250  plane waves:   4136
 k-point  6 :  -.37500.37500.1250  plane waves:   4135
 k-point  7 :  -.12500.37500.1250  plane waves:   4138
 k-point  8 :  -.3750-.37500.1250  plane waves:   4134
 k-point  9 :  0.37500.37500.3750  plane waves:   4126
 k-point 10 :  -.37500.37500.3750  plane waves:   4120

 maximum and minimum number of plane-waves per node :   4154  4111

 maximum number of plane-waves:   4154
 maximal index in each direction: 
   IXMAX= 11   IYMAX= 11   IZMAX= 11
   IXMIN=-11   IYMIN=-11   IZMIN=-11

 NGX is ok and might be reduce to  46
 NGY is ok and might be reduce to  46
 NGZ is ok and might be reduce to  46

 real space projection operators:
  total allocation   :   2044.08 KBytes
  max/ min on nodes  :   2044.08   2044.08


 parallel 3dFFT wavefunction:
    minimum data exchange during FFTs selected (reduces bandwidth)
 parallel 3dFFT charge:
    minimum data exchange during FFTs selected (reduces bandwidth)

 For storing wavefunctions   10.58 MBYTES are necessary
 For predicting wavefunctions    3.33 MBYTES are necessary
Broyden mixing: mesh for mixing (old mesh)
   NGX = 23   NGY = 23   NGZ = 23
  (NGX  = 96   NGY  = 96   NGZ  = 96)
 gives a total of  12167 points
 initial charge density was supplied:
 charge density of overlapping atoms calculated
 number of electron   12.0000000 magnetization 
 keeping initial charge density in first step


--------------------------------------------------------------------------------------------------------


 Maximum index for non-local projection operator         7437
 Maximum index for augmentation-charges         7839 (set IRDMAX)


--------------------------------------------------------------------------------------------------------


 First call to EWALD:  gamma=   0.435
 Maximum number of real-space cells 3x 3x 3
 Maximum number of reciprocal cells 3x 3x 3

    FEWALD:  VPU time    0.00: CPU time    0.00


----------------------------------------- Iteration    1(   1)  ---------------------------------------


    POTLOK:  VPU time    0.25: CPU time    0.24
    SETDIJ:  VPU time    0.01: CPU time    0.01
    EDDIAG:  VPU time    0.31: CPU time    0.31
  RMM-DIIS:  VPU time    0.92: CPU time    0.92
    ORTHCH:  VPU time    0.02: CPU time    0.02
    DOS   :  VPU time    0.00: CPU time    0.00
    ------------------------------------------
      LOOP:  VPU time    1.50: CPU time    1.50

 eigenvalue-minimisations  :   160
 total energy-change (2. order) : 0.4497412E+02  (-0.3147708E+03)
 number of electron   12.0000000 magnetization 
 augmentation part    12.0000000 magnetization 

 Free energy of the ion-electron system (eV)
  ---------------------------------------------------
  alpha Z        PSCENC =         2.18483936
  Ewald energy   TEWEN  =      -189.16161777
  -1/2 Hartree   DENC   =       -12.11620336
  -V(xc)+E(xc)   XCENC  =       -37.58994601
  PAW double counting   =        71.42637628       -7.53723064
  entropy T*S    EENTRO =        -0.00657668
  eigenvalues    EBANDS =        35.74024661
  atomic energy  EATOM  =       182.03422908
  ---------------------------------------------------
  free energy    TOTEN  =        44.97411688 eV

  energy without entropy =       44.98069355  energy(sigma->0) =       44.97740522


--------------------------------------------------------------------------------------------------------




----------------------------------------- Iteration    1(   2)  ---------------------------------------


    EDDIAG:  VPU time    0.30: CPU time    0.30
  RMM-DIIS:  VPU time    0.92: CPU time    0.92
    ORTHCH:  VPU time    0.02: CPU time    0.02
    DOS   :  VPU time    0.00: CPU time    0.00
    ------------------------------------------
      LOOP:  VPU time    1.24: CPU time    1.24

 eigenvalue-minimisations  :   160
 total energy-change (2. order) :-0.5468738E+02  (-0.4913097E+02)
 number of electron   12.0000000 magnetization 
 augmentation part    12.0000000 magnetization 

 Free energy of the ion-electron system (eV)
  ---------------------------------------------------
  alpha Z        PSCENC =         2.18483936
  Ewald energy   TEWEN  =      -189.16161777
  -1/2 Hartree   DENC   =       -12.11620336
  -V(xc)+E(xc)   XCENC  =       -37.58994601
  PAW double counting   =        71.42637628       -7.53723064
  entropy T*S    EENTRO =        -0.00963654
  eigenvalues    EBANDS =       -18.94407326
  atomic energy  EATOM  =       182.03422908
  ---------------------------------------------------
  free energy    TOTEN  =        -9.71326285 eV

  energy without entropy =       -9.70362631  energy(sigma->0) =       -9.70844458


--------------------------------------------------------------------------------------------------------




----------------------------------------- Iteration    1(   3)  ---------------------------------------


    EDDIAG:  VPU time    0.30: CPU time    0.30
  RMM-DIIS:  VPU time    0.91: CPU time    0.91
    ORTHCH:  VPU time    0.02: CPU time    0.02
    DOS   :  VPU time    0.00: CPU time    0.00
    ------------------------------------------
      LOOP:  VPU time    1.23: CPU time    1.24

 eigenvalue-minimisations  :   160
 total energy-change (2. order) :-0.1571499E+02  (-0.1094777E+02)
 number of electron   12.0000000 magnetization 
 augmentation part    12.0000000 magnetization 

 Free energy of the ion-electron system (eV)
  ---------------------------------------------------
  alpha Z        PSCENC =         2.18483936
  Ewald energy   TEWEN  =      -189.16161777
  -1/2 Hartree   DENC   =       -12.11620336
  -V(xc)+E(xc)   XCENC  =       -37.58994601
  PAW double counting   =        71.42637628       -7.53723064
  entropy T*S    EENTRO =         0.00000000
  eigenvalues    EBANDS =       -34.66870359
  atomic energy  EATOM  =       182.03422908
  ---------------------------------------------------
  free energy    TOTEN  =       -25.42825664 eV

  energy without entropy =      -25.42825664  energy(sigma->0) =      -25.42825664


--------------------------------------------------------------------------------------------------------




----------------------------------------- Iteration    1(   4)  ---------------------------------------


    EDDIAG:  VPU time    0.30: CPU time    0.30
  RMM-DIIS:  VPU time    0.92: CPU time    0.92
    ORTHCH:  VPU time    0.02: CPU time    0.02
    DOS   :  VPU time    0.00: CPU time    0.00
    ------------------------------------------
      LOOP:  VPU time    1.24: CPU time    1.25

 eigenvalue-minimisations  :   160
 total energy-change (2. order) :-0.3274739E+01  (-0.2013022E+01)
 number of electron   12.0000000 magnetization 
 augmentation part    12.0000000 magnetization 

 Free energy of the ion-electron system (eV)
  ---------------------------------------------------
  alpha Z        PSCENC =         2.18483936
  Ewald energy   TEWEN  =      -189.16161777
  -1/2 Hartree   DENC   =       -12.11620336
  -V(xc)+E(xc)   XCENC  =       -37.58994601
  PAW double counting   =        71.42637628       -7.53723064
  entropy T*S    EENTRO =         0.00000000
  eigenvalues    EBANDS =       -37.94344278
  atomic energy  EATOM  =       182.03422908
  ---------------------------------------------------
  free energy    TOTEN  =       -28.70299583 eV

  energy without entropy =      -28.70299583  energy(sigma->0) =      -28.70299583


--------------------------------------------------------------------------------------------------------




----------------------------------------- Iteration    1(   5)  ---------------------------------------


    EDDIAG:  VPU time    0.31: CPU time    0.31
  RMM-DIIS:  VPU time    0.93: CPU time    0.93
    ORTHCH:  VPU time    0.02: CPU time    0.02
    DOS   :  VPU time    0.00: CPU time    0.00
    ------------------------------------------
      LOOP:  VPU time    1.26: CPU time    1.26

 eigenvalue-minimisations  :   160
 total energy-change (2. order) :-0.3614209E+00  (-0.2873855E+00)
 number of electron   12.0000000 magnetization 
 augmentation part    12.0000000 magnetization 

 Free energy of the ion-electron system (eV)
  ---------------------------------------------------
  alpha Z        PSCENC =         2.18483936
  Ewald energy   TEWEN  =      -189.16161777
  -1/2 Hartree   DENC   =       -12.11620336
  -V(xc)+E(xc)   XCENC  =       -37.58994601
  PAW double counting   =        71.42637628       -7.53723064
  entropy T*S    EENTRO =         0.00000000
  eigenvalues    EBANDS =       -38.30486365
  atomic energy  EATOM  =       182.03422908
  ---------------------------------------------------
  free energy    TOTEN  =       -29.06441670 eV

  energy without entropy =      -29.06441670  energy(sigma->0) =      -29.06441670


--------------------------------------------------------------------------------------------------------




----------------------------------------- Iteration    1(   6)  ---------------------------------------


    EDDIAG:  VPU time    0.31: CPU time    0.31
  RMM-DIIS:  VPU time    0.92: CPU time    0.92
    ORTHCH:  VPU time    0.02: CPU time    0.02
    DOS   :  VPU time    0.00: CPU time    0.00
    ------------------------------------------
      LOOP:  VPU time    1.24: CPU time    1.25

 eigenvalue-minimisations  :   160
 total energy-change (2. order) :-0.5421796E-01  (-0.4595694E-01)
 number of electron   12.0000000 magnetization 
 augmentation part    12.0000000 magnetization 

 Free energy of the ion-electron system (eV)
  ---------------------------------------------------
  alpha Z        PSCENC =         2.18483936
  Ewald energy   TEWEN  =      -189.16161777
  -1/2 Hartree   DENC   =       -12.11620336
  -V(xc)+E(xc)   XCENC  =       -37.58994601
  PAW double counting   =        71.42637628       -7.53723064
  entropy T*S    EENTRO =         0.00000000
  eigenvalues    EBANDS =       -38.35908161
  atomic energy  EATOM  =       182.03422908
  ---------------------------------------------------
  free energy    TOTEN  =       -29.11863466 eV

  energy without entropy =      -29.11863466  energy(sigma->0) =      -29.11863466


--------------------------------------------------------------------------------------------------------




----------------------------------------- Iteration    1(   7)  ---------------------------------------


    EDDIAG:  VPU time    0.31: CPU time    0.31
  RMM-DIIS:  VPU time    0.90: CPU time    0.90
    ORTHCH:  VPU time    0.02: CPU time    0.02
    DOS   :  VPU time    0.00: CPU time    0.00
    ------------------------------------------
      LOOP:  VPU time    1.23: CPU time    1.23

 eigenvalue-minimisations  :   160
 total energy-change (2. order) :-0.9609812E-02  (-0.8918649E-02)
 number of electron   12.0000000 magnetization 
 augmentation part    12.0000000 magnetization 

 Free energy of the ion-electron system (eV)
  ---------------------------------------------------
  alpha Z        PSCENC =         2.18483936
  Ewald energy   TEWEN  =      -189.16161777
  -1/2 Hartree   DENC   =       -12.11620336
  -V(xc)+E(xc)   XCENC  =       -37.58994601
  PAW double counting   =        71.42637628       -7.53723064
  entropy T*S    EENTRO =         0.00000000
  eigenvalues    EBANDS =       -38.36869142
  atomic energy  EATOM  =       182.03422908
  ---------------------------------------------------
  free energy    TOTEN  =       -29.12824447 eV

  energy without entropy =      -29.12824447  energy(sigma->0) =      -29.12824447


--------------------------------------------------------------------------------------------------------




----------------------------------------- Iteration    1(   8)  ---------------------------------------


    EDDIAG:  VPU time    0.30: CPU time    0.30
  RMM-DIIS:  VPU time    0.90: CPU time    0.90
    ORTHCH:  VPU time    0.02: CPU time    0.02
    DOS   :  VPU time    0.00: CPU time    0.00
    ------------------------------------------
      LOOP:  VPU time    1.22: CPU time    1.23

 eigenvalue-minimisations  :   160
 total energy-change (2. order) :-0.2252744E-02  (-0.2173457E-02)
 number of electron   12.0000000 magnetization 
 augmentation part    12.0000000 magnetization 

 Free energy of the ion-electron system (eV)
  ---------------------------------------------------
  alpha Z        PSCENC =         2.18483936
  Ewald energy   TEWEN  =      -189.16161777
  -1/2 Hartree   DENC   =       -12.11620336
  -V(xc)+E(xc)   XCENC  =       -37.58994601
  PAW double counting   =        71.42637628       -7.53723064
  entropy T*S    EENTRO =         0.00000000
  eigenvalues    EBANDS =       -38.37094416
  atomic energy  EATOM  =       182.03422908
  ---------------------------------------------------
  free energy    TOTEN  =       -29.13049721 eV

  energy without entropy =      -29.13049721  energy(sigma->0) =      -29.13049721


--------------------------------------------------------------------------------------------------------




----------------------------------------- Iteration    1(   9)  ---------------------------------------


    EDDIAG:  VPU time    0.30: CPU time    0.30
  RMM-DIIS:  VPU time    1.60: CPU time    1.60
    ORTHCH:  VPU time    0.02: CPU time    0.02
    DOS   :  VPU time    0.00: CPU time    0.00
    ------------------------------------------
      LOOP:  VPU time    1.92: CPU time    1.92

 eigenvalue-minimisations  :   330
 total energy-change (2. order) :-0.8636605E-03  (-0.8547595E-03)
 number of electron   12.0000000 magnetization 
 augmentation part    12.0000000 magnetization 

 Free energy of the ion-electron system (eV)
  ---------------------------------------------------
  alpha Z        PSCENC =         2.18483936
  Ewald energy   TEWEN  =      -189.16161777
  -1/2 Hartree   DENC   =       -12.11620336
  -V(xc)+E(xc)   XCENC  =       -37.58994601
  PAW double counting   =        71.42637628       -7.53723064
  entropy T*S    EENTRO =         0.00000000
  eigenvalues    EBANDS =       -38.37180782
  atomic energy  EATOM  =       182.03422908
  ---------------------------------------------------
  free energy    TOTEN  =       -29.13136087 eV

  energy without entropy =      -29.13136087  energy(sigma->0) =      -29.13136087


--------------------------------------------------------------------------------------------------------




----------------------------------------- Iteration    1(  10)  ---------------------------------------


    EDDIAG:  VPU time    0.30: CPU time    0.30
  RMM-DIIS:  VPU time    1.70: CPU time    1.70
    ORTHCH:  VPU time    0.02: CPU time    0.02
    DOS   :  VPU time    0.00: CPU time    0.00
    ------------------------------------------
      LOOP:  VPU time    2.02: CPU time    2.03

 eigenvalue-minimisations  :   354
 total energy-change (2. order) :-0.1000042E-03  (-0.9985322E-04)
 number of electron   12.0000000 magnetization 
 augmentation part    12.0000000 magnetization 

 Free energy of the ion-electron system (eV)
  ---------------------------------------------------
  alpha Z        PSCENC =         2.18483936
  Ewald energy   TEWEN  =      -189.16161777
  -1/2 Hartree   DENC   =       -12.11620336
  -V(xc)+E(xc)   XCENC  =       -37.58994601
  PAW double counting   =        71.42637628       -7.53723064
  entropy T*S    EENTRO =         0.00000000
  eigenvalues    EBANDS =       -38.37190783
  atomic energy  EATOM  =       182.03422908
  ---------------------------------------------------
  free energy    TOTEN  =       -29.13146088 eV

  energy without entropy =      -29.13146088  energy(sigma->0) =      -29.13146088


--------------------------------------------------------------------------------------------------------




----------------------------------------- Iteration    1(  11)  ---------------------------------------


    EDDIAG:  VPU time    0.31: CPU time    0.31
  RMM-DIIS:  VPU time    1.59: CPU time    1.59
    ORTHCH:  VPU time    0.02: CPU time    0.02
    DOS   :  VPU time    0.00: CPU time    0.00
    ------------------------------------------
      LOOP:  VPU time    1.91: CPU time    1.92

 eigenvalue-minimisations  :   331
 total energy-change (2. order) :-0.2187723E-05  (-0.2199932E-05)
 number of electron   12.0000000 magnetization 
 augmentation part    12.0000000 magnetization 

 Free energy of the ion-electron system (eV)
  ---------------------------------------------------
  alpha Z        PSCENC =         2.18483936
  Ewald energy   TEWEN  =      -189.16161777
  -1/2 Hartree   DENC   =       -12.11620336
  -V(xc)+E(xc)   XCENC  =       -37.58994601
  PAW double counting   =        71.42637628       -7.53723064
  entropy T*S    EENTRO =         0.00000000
  eigenvalues    EBANDS =       -38.37191001
  atomic energy  EATOM  =       182.03422908
  ---------------------------------------------------
  free energy    TOTEN  =       -29.13146307 eV

  energy without entropy =      -29.13146307  energy(sigma->0) =      -29.13146307


--------------------------------------------------------------------------------------------------------




----------------------------------------- Iteration    1(  12)  ---------------------------------------


    EDDIAG:  VPU time    0.30: CPU time    0.30
  RMM-DIIS:  VPU time    1.64: CPU time    1.64
    ORTHCH:  VPU time    0.02: CPU time    0.02
    DOS   :  VPU time    0.00: CPU time    0.00
    CHARGE:  VPU time    0.10: CPU time    0.10
    MIXING:  VPU time    0.00: CPU time    0.01
    ------------------------------------------
      LOOP:  VPU time    2.06: CPU time    2.06

 eigenvalue-minimisations  :   335
 total energy-change (2. order) :-0.3507287E-06  (-0.3502692E-06)
 number of electron   12.0000000 magnetization 
 augmentation part    -0.0055368 magnetization 

 Broyden mixing:
  rms(total) = 0.78780E+00    rms(broyden)= 0.78779E+00
  rms(prec ) = 0.17383E+01
  weight for this iteration     100.00

 Free energy of the ion-electron system (eV)
  ---------------------------------------------------
  alpha Z        PSCENC =         2.18483936
  Ewald energy   TEWEN  =      -189.16161777
  -1/2 Hartree   DENC   =       -12.11620336
  -V(xc)+E(xc)   XCENC  =       -37.58994601
  PAW double counting   =        71.42637628       -7.53723064
  entropy T*S    EENTRO =         0.00000000
  eigenvalues    EBANDS =       -38.37191036
  atomic energy  EATOM  =       182.03422908
  ---------------------------------------------------
  free energy    TOTEN  =       -29.13146342 eV

  energy without entropy =      -29.13146342  energy(sigma->0) =      -29.13146342


--------------------------------------------------------------------------------------------------------




----------------------------------------- Iteration    1(  13)  ---------------------------------------


    POTLOK:  VPU time    0.24: CPU time    0.24
    SETDIJ:  VPU time    0.01: CPU time    0.01
    EDDIAG:  VPU time    0.30: CPU time    0.30
  RMM-DIIS:  VPU time    1.56: CPU time    1.55
    ORTHCH:  VPU time    0.02: CPU time    0.02
    DOS   :  VPU time    0.00: CPU time    0.00
    CHARGE:  VPU time    0.10: CPU time    0.10
    MIXING:  VPU time    0.00: CPU time    0.01
    ------------------------------------------
      LOOP:  VPU time    2.23: CPU time    2.24

 eigenvalue-minimisations  :   320
 total energy-change (2. order) : 0.9751602E+00  (-0.3785912E-01)
 number of electron   12.0000000 magnetization 
 augmentation part    -0.0116995 magnetization 

 Broyden mixing:
  rms(total) = 0.42392E+00    rms(broyden)= 0.42392E+00
  rms(prec ) = 0.95096E+00
  weight for this iteration     100.00

 eigenvalues of (default mixing * dielectric matrix)
  average eigenvalue GAMMA=   2.1414
  2.1414

 Free energy of the ion-electron system (eV)
  ---------------------------------------------------
  alpha Z        PSCENC =         2.18483936
  Ewald energy   TEWEN  =      -189.16161777
  -1/2 Hartree   DENC   =       -16.74237939
  -V(xc)+E(xc)   XCENC  =       -36.62430616
  PAW double counting   =        73.03850192       -9.13510803
  entropy T*S    EENTRO =         0.00000000
  eigenvalues    EBANDS =       -33.75046218
  atomic energy  EATOM  =       182.03422908
  ---------------------------------------------------
  free energy    TOTEN  =       -28.15630317 eV

  energy without entropy =      -28.15630317  energy(sigma->0) =      -28.15630317


--------------------------------------------------------------------------------------------------------




----------------------------------------- Iteration    1(  14)  ---------------------------------------


    POTLOK:  VPU time    0.24: CPU time    0.24
    SETDIJ:  VPU time    0.01: CPU time    0.01
    EDDIAG:  VPU time    0.30: CPU time    0.30
  RMM-DIIS:  VPU time    1.56: CPU time    1.57
    ORTHCH:  VPU time    0.02: CPU time    0.02
    DOS   :  VPU time    0.00: CPU time    0.00
    CHARGE:  VPU time    0.10: CPU time    0.10
    MIXING:  VPU time    0.00: CPU time    0.01
    ------------------------------------------
      LOOP:  VPU time    2.24: CPU time    2.25

 eigenvalue-minimisations  :   320
 total energy-change (2. order) : 0.3729845E+00  (-0.7011645E-01)
 number of electron   12.0000000 magnetization 
 augmentation part    -0.0197164 magnetization 

 Broyden mixing:
  rms(total) = 0.44866E-01    rms(broyden)= 0.44860E-01
  rms(prec ) = 0.93237E-01
  weight for this iteration     100.00

 eigenvalues of (default mixing * dielectric matrix)
  average eigenvalue GAMMA=   2.5126
  2.4830  2.5422

 Free energy of the ion-electron system (eV)
  ---------------------------------------------------
  alpha Z        PSCENC =         2.18483936
  Ewald energy   TEWEN  =      -189.16161777
  -1/2 Hartree   DENC   =       -24.03593015
  -V(xc)+E(xc)   XCENC  =       -35.18511507
  PAW double counting   =        76.49719469      -12.60157209
  entropy T*S    EENTRO =         0.00000000
  eigenvalues    EBANDS =       -27.51534670
  atomic energy  EATOM  =       182.03422908
  ---------------------------------------------------
  free energy    TOTEN  =       -27.78331864 eV

  energy without entropy =      -27.78331864  energy(sigma->0) =      -27.78331864


--------------------------------------------------------------------------------------------------------




----------------------------------------- Iteration    1(  15)  ---------------------------------------


    POTLOK:  VPU time    0.24: CPU time    0.24
    SETDIJ:  VPU time    0.01: CPU time    0.01
    EDDIAG:  VPU time    0.30: CPU time    0.30
  RMM-DIIS:  VPU time    1.56: CPU time    1.56
    ORTHCH:  VPU time    0.02: CPU time    0.02
    DOS   :  VPU time    0.00: CPU time    0.00
    CHARGE:  VPU time    0.10: CPU time    0.10
    MIXING:  VPU time    0.01: CPU time    0.01
    ------------------------------------------
      LOOP:  VPU time    2.24: CPU time    2.25

 eigenvalue-minimisations  :   320
 total energy-change (2. order) :-0.7478327E-02  (-0.1733061E-02)
 number of electron   12.0000000 magnetization 
 augmentation part    -0.0189674 magnetization 

 Broyden mixing:
  rms(total) = 0.11732E-01    rms(broyden)= 0.11730E-01
  rms(prec ) = 0.26377E-01
  weight for this iteration     100.00

 eigenvalues of (default mixing * dielectric matrix)
  average eigenvalue GAMMA=   2.1013
  2.7319  1.7860  1.7860

 Free energy of the ion-electron system (eV)
  ---------------------------------------------------
  alpha Z        PSCENC =         2.18483936
  Ewald energy   TEWEN  =      -189.16161777
  -1/2 Hartree   DENC   =       -24.22958274
  -V(xc)+E(xc)   XCENC  =       -35.16122539
  PAW double counting   =        76.70038896      -12.84222036
  entropy T*S    EENTRO =         0.00000000
  eigenvalues    EBANDS =       -27.31560812
  atomic energy  EATOM  =       182.03422908
  ---------------------------------------------------
  free energy    TOTEN  =       -27.79079697 eV

  energy without entropy =      -27.79079697  energy(sigma->0) =      -27.79079697


--------------------------------------------------------------------------------------------------------




----------------------------------------- Iteration    1(  16)  ---------------------------------------


    POTLOK:  VPU time    0.24: CPU time    0.24
    SETDIJ:  VPU time    0.01: CPU time    0.01
    EDDIAG:  VPU time    0.30: CPU time    0.30
  RMM-DIIS:  VPU time    1.56: CPU time    1.57
    ORTHCH:  VPU time    0.02: CPU time    0.02
    DOS   :  VPU time    0.00: CPU time    0.00
    CHARGE:  VPU time    0.10: CPU time    0.10
    MIXING:  VPU time    0.01: CPU time    0.01
    ------------------------------------------
      LOOP:  VPU time    2.24: CPU time    2.25

 eigenvalue-minimisations  :   320
 total energy-change (2. order) : 0.9859587E-04  (-0.1169302E-03)
 number of electron   12.0000000 magnetization 
 augmentation part    -0.0193230 magnetization 

 Broyden mixing:
  rms(total) = 0.37891E-02    rms(broyden)= 0.37887E-02
  rms(prec ) = 0.70507E-02
  weight for this iteration     100.00

 eigenvalues of (default mixing * dielectric matrix)
  average eigenvalue GAMMA=   2.1693
  0.9755  3.1205  2.4832  2.0982

 Free energy of the ion-electron system (eV)
  ---------------------------------------------------
  alpha Z        PSCENC =         2.18483936
  Ewald energy   TEWEN  =      -189.16161777
  -1/2 Hartree   DENC   =       -24.43806362
  -V(xc)+E(xc)   XCENC  =       -35.12039263
  PAW double counting   =        76.73680279      -12.87377205
  entropy T*S    EENTRO =         0.00000000
  eigenvalues    EBANDS =       -27.15272353
  atomic energy  EATOM  =       182.03422908
  ---------------------------------------------------
  free energy    TOTEN  =       -27.79069837 eV

  energy without entropy =      -27.79069837  energy(sigma->0) =      -27.79069837


--------------------------------------------------------------------------------------------------------




----------------------------------------- Iteration    1(  17)  ---------------------------------------


    POTLOK:  VPU time    0.24: CPU time    0.24
    SETDIJ:  VPU time    0.01: CPU time    0.01
    EDDIAG:  VPU time    0.30: CPU time    0.30
  RMM-DIIS:  VPU time    1.56: CPU time    1.56
    ORTHCH:  VPU time    0.02: CPU time    0.02
    DOS   :  VPU time    0.00: CPU time    0.00
    CHARGE:  VPU time    0.10: CPU time    0.10
    MIXING:  VPU time    0.01: CPU time    0.01
    ------------------------------------------
      LOOP:  VPU time    2.24: CPU time    2.25

 eigenvalue-minimisations  :   320
 total energy-change (2. order) :-0.1162808E-03  (-0.2261829E-04)
 number of electron   12.0000000 magnetization 
 augmentation part    -0.0192896 magnetization 

 Broyden mixing:
  rms(total) = 0.11671E-02    rms(broyden)= 0.11670E-02
  rms(prec ) = 0.20679E-02
  weight for this iteration     100.00

 eigenvalues of (default mixing * dielectric matrix)
  average eigenvalue GAMMA=   1.9274
  2.9694  2.4225  2.1779  1.0337  1.0337

 Free energy of the ion-electron system (eV)
  ---------------------------------------------------
  alpha Z        PSCENC =         2.18483936
  Ewald energy   TEWEN  =      -189.16161777
  -1/2 Hartree   DENC   =       -24.41951284
  -V(xc)+E(xc)   XCENC  =       -35.12547317
  PAW double counting   =        76.64659251      -12.78021955
  entropy T*S    EENTRO =         0.00000000
  eigenvalues    EBANDS =       -27.16965228
  atomic energy  EATOM  =       182.03422908
  ---------------------------------------------------
  free energy    TOTEN  =       -27.79081465 eV

  energy without entropy =      -27.79081465  energy(sigma->0) =      -27.79081465


--------------------------------------------------------------------------------------------------------




----------------------------------------- Iteration    1(  18)  ---------------------------------------


    POTLOK:  VPU time    0.25: CPU time    0.25
    SETDIJ:  VPU time    0.01: CPU time    0.01
    EDDIAG:  VPU time    0.30: CPU time    0.30
  RMM-DIIS:  VPU time    1.58: CPU time    1.57
    ORTHCH:  VPU time    0.02: CPU time    0.02
    DOS   :  VPU time    0.00: CPU time    0.00
    CHARGE:  VPU time    0.10: CPU time    0.10
    MIXING:  VPU time    0.01: CPU time    0.01
    ------------------------------------------
      LOOP:  VPU time    2.26: CPU time    2.31

 eigenvalue-minimisations  :   324
 total energy-change (2. order) :-0.2149035E-05  (-0.8542270E-06)
 number of electron   12.0000000 magnetization 
 augmentation part    -0.0193108 magnetization 

 Broyden mixing:
  rms(total) = 0.28162E-03    rms(broyden)= 0.28159E-03
  rms(prec ) = 0.67997E-03
  weight for this iteration     100.00

 eigenvalues of (default mixing * dielectric matrix)
  average eigenvalue GAMMA=   2.1190
  3.3394  2.9508  2.3797  2.1571  0.9665  0.9208

 Free energy of the ion-electron system (eV)
  ---------------------------------------------------
  alpha Z        PSCENC =         2.18483936
  Ewald energy   TEWEN  =      -189.16161777
  -1/2 Hartree   DENC   =       -24.43332358
  -V(xc)+E(xc)   XCENC  =       -35.12286941
  PAW double counting   =        76.65811206      -12.79167757
  entropy T*S    EENTRO =         0.00000000
  eigenvalues    EBANDS =       -27.15850898
  atomic energy  EATOM  =       182.03422908
  ---------------------------------------------------
  free energy    TOTEN  =       -27.79081680 eV

  energy without entropy =      -27.79081680  energy(sigma->0) =      -27.79081680


--------------------------------------------------------------------------------------------------------




----------------------------------------- Iteration    1(  19)  ---------------------------------------


    POTLOK:  VPU time    0.24: CPU time    0.24
    SETDIJ:  VPU time    0.01: CPU time    0.01
    EDDIAG:  VPU time    0.31: CPU time    0.31
  RMM-DIIS:  VPU time    1.57: CPU time    1.57
    ORTHCH:  VPU time    0.02: CPU time    0.02
    DOS   :  VPU time    0.00: CPU time    0.00
    CHARGE:  VPU time    0.10: CPU time    0.10
    MIXING:  VPU time    0.01: CPU time    0.01
    ------------------------------------------
      LOOP:  VPU time    2.25: CPU time    2.26

 eigenvalue-minimisations  :   320
 total energy-change (2. order) :-0.3137716E-06  (-0.2217841E-06)
 number of electron   12.0000000 magnetization 
 augmentation part    -0.0192994 magnetization 

 Broyden mixing:
  rms(total) = 0.11414E-03    rms(broyden)= 0.11414E-03
  rms(prec ) = 0.23071E-03
  weight for this iteration     100.00

 eigenvalues of (default mixing * dielectric matrix)
  average eigenvalue GAMMA=   1.9348
  3.2693  2.8000  2.3243  2.1531  0.9385  1.0290  1.0290

 Free energy of the ion-electron system (eV)
  ---------------------------------------------------
  alpha Z        PSCENC =         2.18483936
  Ewald energy   TEWEN  =      -189.16161777
  -1/2 Hartree   DENC   =       -24.43042741
  -V(xc)+E(xc)   XCENC  =       -35.12388777
  PAW double counting   =        76.65819040      -12.79185471
  entropy T*S    EENTRO =         0.00000000
  eigenvalues    EBANDS =       -27.16028830
  atomic energy  EATOM  =       182.03422908
  ---------------------------------------------------
  free energy    TOTEN  =       -27.79081711 eV

  energy without entropy =      -27.79081711  energy(sigma->0) =      -27.79081711


--------------------------------------------------------------------------------------------------------




----------------------------------------- Iteration    1(  20)  ---------------------------------------


    POTLOK:  VPU time    0.24: CPU time    0.24
    SETDIJ:  VPU time    0.01: CPU time    0.01
    EDDIAG:  VPU time    0.31: CPU time    0.31
  RMM-DIIS:  VPU time    1.60: CPU time    1.60
    ORTHCH:  VPU time    0.02: CPU time    0.02
    DOS   :  VPU time    0.00: CPU time    0.00
    CHARGE:  VPU time    0.10: CPU time    0.10
    MIXING:  VPU time    0.01: CPU time    0.01
    ------------------------------------------
      LOOP:  VPU time    2.29: CPU time    2.29

 eigenvalue-minimisations  :   331
 total energy-change (2. order) :-0.1354020E-06  (-0.1100410E-07)
 number of electron   12.0000000 magnetization 
 augmentation part    -0.0192990 magnetization 

 Broyden mixing:
  rms(total) = 0.24215E-04    rms(broyden)= 0.24215E-04
  rms(prec ) = 0.47163E-04
  weight for this iteration     100.00

 eigenvalues of (default mixing * dielectric matrix)
  average eigenvalue GAMMA=   1.9835
  3.2136  2.9725  2.5256  2.1546  2.1546  1.0038  0.9739  0.8697

 Free energy of the ion-electron system (eV)
  ---------------------------------------------------
  alpha Z        PSCENC =         2.18483936
  Ewald energy   TEWEN  =      -189.16161777
  -1/2 Hartree   DENC   =       -24.43143336
  -V(xc)+E(xc)   XCENC  =       -35.12366668
  PAW double counting   =        76.65857727      -12.79221253
  entropy T*S    EENTRO =         0.00000000
  eigenvalues    EBANDS =       -27.15953261
  atomic energy  EATOM  =       182.03422908
  ---------------------------------------------------
  free energy    TOTEN  =       -27.79081725 eV

  energy without entropy =      -27.79081725  energy(sigma->0) =      -27.79081725


--------------------------------------------------------------------------------------------------------




----------------------------------------- Iteration    1(  21)  ---------------------------------------


    POTLOK:  VPU time    0.24: CPU time    0.24
    SETDIJ:  VPU time    0.01: CPU time    0.01
    EDDIAG:  VPU time    0.31: CPU time    0.30
  RMM-DIIS:  VPU time    1.56: CPU time    1.56
    ORTHCH:  VPU time    0.02: CPU time    0.02
    DOS   :  VPU time    0.00: CPU time    0.00
    CHARGE:  VPU time    0.10: CPU time    0.10
    MIXING:  VPU time    0.01: CPU time    0.01
    ------------------------------------------
      LOOP:  VPU time    2.24: CPU time    2.25

 eigenvalue-minimisations  :   320
 total energy-change (2. order) :-0.6163097E-07  (-0.1045423E-08)
 number of electron   12.0000000 magnetization 
 augmentation part    -0.0192997 magnetization 

 Broyden mixing:
  rms(total) = 0.11978E-04    rms(broyden)= 0.11978E-04
  rms(prec ) = 0.23736E-04
  weight for this iteration     100.00

 eigenvalues of (default mixing * dielectric matrix)
  average eigenvalue GAMMA=   1.9324
  3.3266  2.9582  2.6546  2.3502  2.0976  1.1486  1.0088  0.9600  0.8872

 Free energy of the ion-electron system (eV)
  ---------------------------------------------------
  alpha Z        PSCENC =         2.18483936
  Ewald energy   TEWEN  =      -189.16161777
  -1/2 Hartree   DENC   =       -24.43181858
  -V(xc)+E(xc)   XCENC  =       -35.12358597
  PAW double counting   =        76.65893430      -12.79256749
  entropy T*S    EENTRO =         0.00000000
  eigenvalues    EBANDS =       -27.15923024
  atomic energy  EATOM  =       182.03422908
  ---------------------------------------------------
  free energy    TOTEN  =       -27.79081731 eV

  energy without entropy =      -27.79081731  energy(sigma->0) =      -27.79081731


--------------------------------------------------------------------------------------------------------




----------------------------------------- Iteration    1(  22)  ---------------------------------------


    POTLOK:  VPU time    0.24: CPU time    0.24
    SETDIJ:  VPU time    0.01: CPU time    0.01
    EDDIAG:  VPU time    0.30: CPU time    0.31
  RMM-DIIS:  VPU time    1.12: CPU time    1.12
    ORTHCH:  VPU time    0.02: CPU time    0.02
    DOS   :  VPU time    0.00: CPU time    0.00
    CHARGE:  VPU time    0.10: CPU time    0.10
    MIXING:  VPU time    0.01: CPU time    0.01
    ------------------------------------------
      LOOP:  VPU time    1.80: CPU time    1.81

 eigenvalue-minimisations  :   223
 total energy-change (2. order) : 0.2381847E-07  (-0.8245485E-10)
 number of electron   12.0000000 magnetization 
 augmentation part    -0.0192994 magnetization 

 Broyden mixing:
  rms(total) = 0.83324E-06    rms(broyden)= 0.83322E-06
  rms(prec ) = 0.16112E-05
  weight for this iteration     100.00

 eigenvalues of (default mixing * dielectric matrix)
  average eigenvalue GAMMA=   1.9659
  3.3546  3.1849  2.7741  2.3453  2.0817  2.0249  1.0175  0.9841  0.9841  0.9082

 Free energy of the ion-electron system (eV)
  ---------------------------------------------------
  alpha Z        PSCENC =         2.18483936
  Ewald energy   TEWEN  =      -189.16161777
  -1/2 Hartree   DENC   =       -24.43164410
  -V(xc)+E(xc)   XCENC  =       -35.12361707
  PAW double counting   =        76.65887475      -12.79251220
  entropy T*S    EENTRO =         0.00000000
  eigenvalues    EBANDS =       -27.15936935
  atomic energy  EATOM  =       182.03422908
  ---------------------------------------------------
  free energy    TOTEN  =       -27.79081729 eV

  energy without entropy =      -27.79081729  energy(sigma->0) =      -27.79081729


--------------------------------------------------------------------------------------------------------




----------------------------------------- Iteration    1(  23)  ---------------------------------------


    POTLOK:  VPU time    0.24: CPU time    0.24
    SETDIJ:  VPU time    0.01: CPU time    0.01
    EDDIAG:  VPU time    0.30: CPU time    0.30
  RMM-DIIS:  VPU time    1.04: CPU time    1.04
    ORTHCH:  VPU time    0.02: CPU time    0.02
    DOS   :  VPU time    0.00: CPU time    0.00
    ------------------------------------------
      LOOP:  VPU time    1.61: CPU time    1.62

 eigenvalue-minimisations  :   199
 total energy-change (2. order) :-0.7338485E-09  (-0.1466752E-10)
 number of electron   12.0000000 magnetization 
 augmentation part    -0.0192994 magnetization 

 Free energy of the ion-electron system (eV)
  ---------------------------------------------------
  alpha Z        PSCENC =         2.18483936
  Ewald energy   TEWEN  =      -189.16161777
  -1/2 Hartree   DENC   =       -24.43164358
  -V(xc)+E(xc)   XCENC  =       -35.12361651
  PAW double counting   =        76.65887613      -12.79251349
  entropy T*S    EENTRO =         0.00000000
  eigenvalues    EBANDS =       -27.15937050
  atomic energy  EATOM  =       182.03422908
  ---------------------------------------------------
  free energy    TOTEN  =       -27.79081729 eV

  energy without entropy =      -27.79081729  energy(sigma->0) =      -27.79081729


--------------------------------------------------------------------------------------------------------




 average (electrostatic) potential at core
  the test charge radii are     0.4325  1.0406
  (the norm of the test charge is              1.0000)
       1 -36.5200       2 -36.5200       3 -36.5200       4 -36.5200       5 -36.5200
       6 -36.5200       7 -77.6494       8 -77.6494
 
 
 
 E-fermi :   1.3586     XC(G=0):  -8.7612     alpha+bet : -9.6655
   add alpha+bet to get absolut eigen values

 k-point   1 :       0.1250    0.1250    0.1250
  band No.  band energies     occupation 
      1      -7.6345      2.00000
      2      -2.0969      2.00000
      3      -0.8490      2.00000
      4      -0.8490      2.00000
      5       0.7015      2.00000
      6       0.7015      2.00000
      7       3.7640      0.00000
      8       6.9177      0.00000
      9       6.9177      0.00000
     10       7.0228      0.00000
     11       7.7607      0.00000
     12       8.5721      0.00000
     13       8.5721      0.00000
     14      10.7662      0.00000
     15      12.7622      0.00000
     16      16.3184      0.00000

 k-point   2 :       0.3750    0.1250    0.1250
  band No.  band energies     occupation 
      1      -6.8557      2.00000
      2      -3.2940      2.00000
      3      -1.9317      2.00000
      4      -0.4959      2.00000
      5      -0.4201      2.00000
      6       0.6779      2.00000
      7       4.9423      0.00000
      8       5.7655      0.00000
      9       7.7687      0.00000
     10       7.9385      0.00000
     11       8.3164      0.00000
     12      10.7221      0.00000
     13      11.2242      0.00000
     14      11.8863      0.00000
     15      13.7561      0.00000
     16      14.9836      0.00000

 k-point   3 :      -0.3750    0.1250    0.1250
  band No.  band energies     occupation 
      1      -5.6367      2.00000
      2      -4.9568      2.00000
      3      -1.4569      2.00000
      4      -1.2769      2.00000
      5      -0.5072      2.00000
      6       0.2417      2.00000
      7       4.9324      0.00000
      8       5.6755      0.00000
      9       7.6887      0.00000
     10       9.4677      0.00000
     11      10.5004      0.00000
     12      11.3635      0.00000
     13      11.5463      0.00000
     14      12.6238      0.00000
     15      12.8780      0.00000
     16      15.3064      0.00000

 k-point   4 :      -0.1250    0.1250    0.1250
  band No.  band energies     occupation 
      1      -7.2090      2.00000
      2      -2.3258      2.00000
      3      -1.3432      2.00000
      4      -1.2851      2.00000
      5      -0.2260      2.00000
      6       0.6683      2.00000
      7       4.3524      0.00000
      8       6.4660      0.00000
      9       6.7869      0.00000
     10       7.5308      0.00000
     11       8.2681      0.00000
     12       8.9208      0.00000
     13      11.1929      0.00000
     14      12.7767      0.00000
     15      14.3454      0.00000
     16      14.8572      0.00000

 k-point   5 :       0.3750    0.3750    0.1250
  band No.  band energies     occupation 
      1      -6.5306      2.00000
      2      -3.3325      2.00000
      3      -1.7783      2.00000
      4      -1.6272      2.00000
      5      -1.1542      2.00000
      6       0.9110      2.00000
      7       6.2164      0.00000
      8       6.8342      0.00000
      9       7.8380      0.00000
     10       8.3319      0.00000
     11       9.0397      0.00000
     12      10.5516      0.00000
     13      11.1790      0.00000
     14      11.9362      0.00000
     15      13.7144      0.00000
     16      15.7601      0.00000

 k-point   6 :      -0.3750    0.3750    0.1250
  band No.  band energies     occupation 
      1      -5.1880      2.00000
      2      -4.3428      2.00000
      3      -2.8647      2.00000
      4      -2.5287      2.00000
      5      -0.4999      2.00000
      6       0.7105      2.00000
      7       6.4674      0.00000
      8       7.3734      0.00000
      9       8.1566      0.00000
     10       8.9160      0.00000
     11      10.3256      0.00000
     12      10.7447      0.00000
     13      11.3017      0.00000
     14      12.7749      0.00000
     15      13.7788      0.00000
     16      14.2678      0.00000

 k-point   7 :      -0.1250    0.3750    0.1250
  band No.  band energies     occupation 
      1      -6.0466      2.00000
      2      -3.9595      2.00000
      3      -2.1560      2.00000
      4      -1.5758      2.00000
      5      -0.5416      2.00000
      6       0.2884      2.00000
      7       5.9091      0.00000
      8       6.4999      0.00000
      9       7.5323      0.00000
     10       8.4477      0.00000
     11       9.5829      0.00000
     12      10.6166      0.00000
     13      11.6048      0.00000
     14      13.0138      0.00000
     15      13.8590      0.00000
     16      14.7091      0.00000

 k-point   8 :      -0.3750   -0.3750    0.1250
  band No.  band energies     occupation 
      1      -5.5205      2.00000
      2      -3.4711      2.00000
      3      -3.2443      2.00000
      4      -2.0263      2.00000
      5      -1.5144      2.00000
      6       0.8372      2.00000
      7       6.2030      0.00000
      8       7.8857      0.00000
      9       8.1724      0.00000
     10       9.3187      0.00000
     11      10.7529      0.00000
     12      10.8991      0.00000
     13      11.7053      0.00000
     14      12.8667      0.00000
     15      13.7657      0.00000
     16      14.1142      0.00000

 k-point   9 :       0.3750    0.3750    0.3750
  band No.  band energies     occupation 
      1      -6.5760      2.00000
      2      -4.5608      2.00000
      3      -0.6147      2.00000
      4      -0.6147      2.00000
      5       0.0012      2.00000
      6       0.0012      2.00000
      7       5.3448      0.00000
      8       6.3773      0.00000
      9       8.1550      0.00000
     10       8.1550      0.00000
     11       9.0669      0.00000
     12      10.3201      0.00000
     13      10.3201      0.00000
     14      12.7223      0.00000
     15      13.3295      0.00000
     16      13.5495      0.00000

 k-point  10 :      -0.3750    0.3750    0.3750
  band No.  band energies     occupation 
      1      -5.4965      2.00000
      2      -4.9442      2.00000
      3      -2.5156      2.00000
      4      -1.3807      2.00000
      5      -0.1590      2.00000
      6       0.6026      2.00000
      7       6.3918      0.00000
      8       6.8741      0.00000
      9       8.0164      0.00000
     10       8.8132      0.00000
     11       9.4297      0.00000
     12      11.5738      0.00000
     13      11.9896      0.00000
     14      12.1772      0.00000
     15      12.3091      0.00000
     16      16.3027      0.00000


--------------------------------------------------------------------------------------------------------


 soft charge-density along one line, spin component           1
         0         1         2         3         4         5         6         7         8         9
 total charge-density along one line
 
 pseudopotential strength for first ion, spin component:           1
 -2.494   0.001   0.000   0.000   0.000
  0.001   0.007   0.000   0.000   0.000
  0.000   0.000  -1.425   0.000   0.000
  0.000   0.000   0.000  -1.426   0.000
  0.000   0.000   0.000   0.000  -1.426
 total augmentation occupancy for first ion, spin component:           1
  1.569  -0.508   0.014   0.001  -0.023
 -0.508   0.192  -0.005   0.000   0.008
  0.014  -0.005   0.001   0.000   0.000
  0.001   0.000   0.000   0.001   0.000
 -0.023   0.008   0.000   0.000   0.001


------------------------ aborting loop because EDIFF is reached ----------------------------------------




--------------------------------------------------------------------------------------------------------


    CHARGE:  VPU time    0.10: CPU time    0.10
    FORLOC:  VPU time    0.02: CPU time    0.01
    FORNL :  VPU time    0.70: CPU time    0.70
    STRESS:  VPU time    2.04: CPU time    2.04
    FORCOR:  VPU time    0.23: CPU time    0.23
    FORHAR:  VPU time    0.07: CPU time    0.07
    MIXING:  VPU time    0.01: CPU time    0.01


--------------------------------------------------------------------------------------------------------



  FREE ENERGIE OF THE ION-ELECTRON SYSTEM (eV)
  ---------------------------------------------------
  free  energy   TOTEN  =       -27.790817 eV

  energy  without entropy=      -27.790817  energy(sigma->0) =      -27.790817
 

  FORCE on cell =-STRESS in cart. coord.  units (eV/reduce length):
  Direction    X        Y        Z        XY       YZ       ZX
  --------------------------------------------------------------------------------------
  Alpha Z      2.18      2.18      2.18
  Ewald      -63.77    -63.77    -61.63      0.00      0.00      0.00
  Hartree      7.78      7.78      8.87      0.00      0.00      0.00
  E(xc)      -35.67    -35.67    -35.64      0.00      0.00      0.00
  Local      -16.98    -16.98    -20.41      0.00      0.00      0.00
  n-local     13.79     14.72     14.25      0.35      0.17     -0.38
  augment     -1.28     -1.28     -1.28      0.00      0.00      0.00
  Kinetic     91.84     96.00     94.01     -0.59     -3.57     -1.32
  -------------------------------------------------------------------------------------
  Total        0.45      0.45      0.35      0.00      0.00      0.00
  in kB       10.73     10.73      8.35      0.00      0.00      0.00
  external pressure =        9.93 kB  Pullay stress =        0.00 kB


 VOLUME and BASIS-vectors are now :
 -----------------------------------------------------------------------------
  energy-cutoff  :      900.00
  volume of cell :       67.45
      direct lattice vectors                 reciprocal lattice vectors
     2.568804553  0.000000000  3.934566667     0.259524091  0.000000000  0.084719198
    -1.284402276  2.224650000  3.934566667    -0.129762046  0.224754456  0.084719198
    -1.284402276 -2.224650000  3.934566667    -0.129762046 -0.224754456  0.084719198

  length of vectors
     4.698890474  4.698890474  4.698890474     0.273002008  0.273002008  0.273002008


 FORCES acting on ions
    electron-ion (+dipol)            ewald-force                    non-local-force                 convergence-correction
 -----------------------------------------------------------------------------------------------
   -.492E+01 0.284E+01 -.422E-10   0.584E+01 -.337E+01 -.954E-10   -.887E+00 0.512E+00 0.694E-17   -.129E-06 0.748E-07 -.561E-15
   -.204E-09 -.569E+01 0.761E-10   0.196E-10 0.674E+01 0.338E-10   0.347E-17 -.102E+01 0.000E+00   0.104E-07 -.320E-06 -.743E-07
   0.492E+01 0.284E+01 -.171E-09   -.584E+01 -.337E+01 -.357E-10   0.887E+00 0.512E+00 0.139E-16   0.282E-06 0.151E-06 0.743E-07
   0.492E+01 -.284E+01 0.407E-10   -.584E+01 0.337E+01 -.229E-10   0.887E+00 -.512E+00 0.347E-17   0.129E-06 -.748E-07 0.464E-16
   0.204E-09 0.569E+01 -.758E-10   -.310E-11 -.674E+01 0.402E-10   0.000E+00 0.102E+01 0.000E+00   -.104E-07 0.320E-06 0.743E-07
   -.492E+01 -.284E+01 0.171E-09   0.584E+01 0.337E+01 0.251E-11   -.887E+00 -.512E+00 -.139E-16   -.282E-06 -.151E-06 -.743E-07
   -.305E-12 0.283E-13 -.458E-12   -.359E-10 0.354E-14 -.488E-10   -.455E-23 0.827E-24 0.000E+00   0.389E-16 -.901E-17 0.334E-15
   -.127E-09 -.361E-12 -.130E-09   0.118E-09 -.550E-14 0.126E-09   0.114E-23 0.620E-24 -.827E-24   -.779E-16 0.428E-15 -.102E-14
 -----------------------------------------------------------------------------------------------
   -.128E-09 0.168E-12 -.132E-09   0.365E-15 0.702E-15 -.153E-14   -.111E-15 0.145E-23 0.104E-16   -.312E-16 0.264E-15 -.144E-14
 
 
 POSITION                                       TOTAL-FORCE (eV/Angst)
 -----------------------------------------------------------------------------------
      1.13541      0.82757      6.88549         0.029614     -0.017098      0.000000
     -1.28440      0.56951      6.88549         0.000000      0.034196      0.000000
      0.14899     -1.39708      6.88549        -0.029614     -0.017098      0.000000
     -1.13541     -0.82757      4.91821        -0.029614      0.017098      0.000000
      1.28440     -0.56951      4.91821         0.000000     -0.034196      0.000000
     -0.14899      1.39708      4.91821         0.029614      0.017098      0.000000
      0.00000      0.00000      0.00000         0.000000      0.000000      0.000000
      0.00000      0.00000      5.90185         0.000000      0.000000      0.000000
 -----------------------------------------------------------------------------------
    total drift:                                0.000000      0.000000      0.000000


--------------------------------------------------------------------------------------------------------




--------------------------------------------------------------------------------------------------------


    WAVPRE:  VPU time    0.04: CPU time    0.04
    FEWALD:  VPU time    0.00: CPU time    0.00
    GENKIN:  VPU time    0.06: CPU time    0.07

 real space projection operators:
  total allocation   :   2027.67 KBytes
  max/ min on nodes  :   2027.67   2027.67

    ORTHCH:  VPU time    0.22: CPU time    0.22
     LOOP+:  VPU time   46.31: CPU time   46.54


----------------------------------------- Iteration    2(   1)  ---------------------------------------


    POTLOK:  VPU time    0.24: CPU time    0.24
    SETDIJ:  VPU time    0.01: CPU time    0.01
    EDDIAG:  VPU time    0.30: CPU time    0.31
  RMM-DIIS:  VPU time    1.56: CPU time    1.56
    ORTHCH:  VPU time    0.02: CPU time    0.02
    DOS   :  VPU time    0.00: CPU time    0.00
    CHARGE:  VPU time    0.10: CPU time    0.10
    MIXING:  VPU time    0.01: CPU time    0.01
    ------------------------------------------
      LOOP:  VPU time    2.24: CPU time    2.24

 eigenvalue-minimisations  :   320
 total energy-change (2. order) :-0.2779328E+02  (-0.1242980E-02)
 number of electron   12.0000000 magnetization 
 augmentation part    -0.0196477 magnetization 

 Broyden mixing:
  rms(total) = 0.47414E-02    rms(broyden)= 0.47400E-02
  rms(prec ) = 0.11180E-01
  weight for this iteration     100.00

 Free energy of the ion-electron system (eV)
  ---------------------------------------------------
  alpha Z        PSCENC =         2.16839103
  Ewald energy   TEWEN  =      -188.75150999
  -1/2 Hartree   DENC   =       -24.34098538
  -V(xc)+E(xc)   XCENC  =       -35.19034199
  PAW double counting   =        76.65887934      -12.79251642
  entropy T*S    EENTRO =         0.00000000
  eigenvalues    EBANDS =       -27.57942097
  atomic energy  EATOM  =       182.03422908
  ---------------------------------------------------
  free energy    TOTEN  =       -27.79327531 eV

  energy without entropy =      -27.79327531  energy(sigma->0) =      -27.79327531


--------------------------------------------------------------------------------------------------------




----------------------------------------- Iteration    2(   2)  ---------------------------------------


    POTLOK:  VPU time    0.24: CPU time    0.24
    SETDIJ:  VPU time    0.01: CPU time    0.01
    EDDIAG:  VPU time    0.30: CPU time    0.30
  RMM-DIIS:  VPU time    1.56: CPU time    1.56
    ORTHCH:  VPU time    0.02: CPU time    0.02
    DOS   :  VPU time    0.00: CPU time    0.00
    CHARGE:  VPU time    0.10: CPU time    0.10
    MIXING:  VPU time    0.01: CPU time    0.01
    ------------------------------------------
      LOOP:  VPU time    2.24: CPU time    2.24

 eigenvalue-minimisations  :   320
 total energy-change (2. order) : 0.4008455E-04  (-0.6003750E-05)
 number of electron   12.0000000 magnetization 
 augmentation part    -0.0196176 magnetization 

 Broyden mixing:
  rms(total) = 0.32396E-02    rms(broyden)= 0.32395E-02
  rms(prec ) = 0.75527E-02
  weight for this iteration     100.00

 eigenvalues of (default mixing * dielectric matrix)
  average eigenvalue GAMMA=   3.0551
  3.0551

 Free energy of the ion-electron system (eV)
  ---------------------------------------------------
  alpha Z        PSCENC =         2.16839103
  Ewald energy   TEWEN  =      -188.75150999
  -1/2 Hartree   DENC   =       -24.37016136
  -V(xc)+E(xc)   XCENC  =       -35.18787886
  PAW double counting   =        76.60653910      -12.73879099
  entropy T*S    EENTRO =         0.00000000
  eigenvalues    EBANDS =       -27.55405322
  atomic energy  EATOM  =       182.03422908
  ---------------------------------------------------
  free energy    TOTEN  =       -27.79323522 eV

  energy without entropy =      -27.79323522  energy(sigma->0) =      -27.79323522


--------------------------------------------------------------------------------------------------------




----------------------------------------- Iteration    2(   3)  ---------------------------------------


    POTLOK:  VPU time    0.24: CPU time    0.24
    SETDIJ:  VPU time    0.01: CPU time    0.01
    EDDIAG:  VPU time    0.30: CPU time    0.30
  RMM-DIIS:  VPU time    1.56: CPU time    1.56
    ORTHCH:  VPU time    0.02: CPU time    0.02
    DOS   :  VPU time    0.00: CPU time    0.00
    CHARGE:  VPU time    0.10: CPU time    0.10
    MIXING:  VPU time    0.00: CPU time    0.01
    ------------------------------------------
      LOOP:  VPU time    2.24: CPU time    2.25

 eigenvalue-minimisations  :   320
 total energy-change (2. order) : 0.4138105E-04  (-0.2410658E-05)
 number of electron   12.0000000 magnetization 
 augmentation part    -0.0195700 magnetization 

 Broyden mixing:
  rms(total) = 0.52976E-03    rms(broyden)= 0.52972E-03
  rms(prec ) = 0.10129E-02
  weight for this iteration     100.00

 eigenvalues of (default mixing * dielectric matrix)
  average eigenvalue GAMMA=   1.8031
  1.0273  2.5790

 Free energy of the ion-electron system (eV)
  ---------------------------------------------------
  alpha Z        PSCENC =         2.16839103
  Ewald energy   TEWEN  =      -188.75150999
  -1/2 Hartree   DENC   =       -24.43239435
  -V(xc)+E(xc)   XCENC  =       -35.18216470
  PAW double counting   =        76.51473751      -12.64444035
  entropy T*S    EENTRO =         0.00000000
  eigenvalues    EBANDS =       -27.50004207
  atomic energy  EATOM  =       182.03422908
  ---------------------------------------------------
  free energy    TOTEN  =       -27.79319384 eV

  energy without entropy =      -27.79319384  energy(sigma->0) =      -27.79319384


--------------------------------------------------------------------------------------------------------




----------------------------------------- Iteration    2(   4)  ---------------------------------------


    POTLOK:  VPU time    0.24: CPU time    0.24
    SETDIJ:  VPU time    0.01: CPU time    0.01
    EDDIAG:  VPU time    0.30: CPU time    0.30
  RMM-DIIS:  VPU time    1.63: CPU time    1.63
    ORTHCH:  VPU time    0.02: CPU time    0.02
    DOS   :  VPU time    0.00: CPU time    0.00
    CHARGE:  VPU time    0.10: CPU time    0.10
    MIXING:  VPU time    0.01: CPU time    0.01
    ------------------------------------------
      LOOP:  VPU time    2.30: CPU time    2.31

 eigenvalue-minimisations  :   337
 total energy-change (2. order) :-0.1650408E-05  (-0.5383357E-07)
 number of electron   12.0000000 magnetization 
 augmentation part    -0.0195588 magnetization 

 Broyden mixing:
  rms(total) = 0.15626E-03    rms(broyden)= 0.15625E-03
  rms(prec ) = 0.28141E-03
  weight for this iteration     100.00

 eigenvalues of (default mixing * dielectric matrix)
  average eigenvalue GAMMA=   2.1063
  0.9560  2.6814  2.6814

 Free energy of the ion-electron system (eV)
  ---------------------------------------------------
  alpha Z        PSCENC =         2.16839103
  Ewald energy   TEWEN  =      -188.75150999
  -1/2 Hartree   DENC   =       -24.42557703
  -V(xc)+E(xc)   XCENC  =       -35.18292837
  PAW double counting   =        76.52477786      -12.65473478
  entropy T*S    EENTRO =         0.00000000
  eigenvalues    EBANDS =       -27.50584330
  atomic energy  EATOM  =       182.03422908
  ---------------------------------------------------
  free energy    TOTEN  =       -27.79319549 eV

  energy without entropy =      -27.79319549  energy(sigma->0) =      -27.79319549


--------------------------------------------------------------------------------------------------------




----------------------------------------- Iteration    2(   5)  ---------------------------------------


    POTLOK:  VPU time    0.24: CPU time    0.24
    SETDIJ:  VPU time    0.01: CPU time    0.01
    EDDIAG:  VPU time    0.30: CPU time    0.30
  RMM-DIIS:  VPU time    1.57: CPU time    1.57
    ORTHCH:  VPU time    0.02: CPU time    0.02
    DOS   :  VPU time    0.00: CPU time    0.00
    CHARGE:  VPU time    0.10: CPU time    0.10
    MIXING:  VPU time    0.01: CPU time    0.01
    ------------------------------------------
      LOOP:  VPU time    2.25: CPU time    2.25

 eigenvalue-minimisations  :   320
 total energy-change (2. order) :-0.5591631E-06  (-0.2249745E-07)
 number of electron   12.0000000 magnetization 
 augmentation part    -0.0195556 magnetization 

 Broyden mixing:
  rms(total) = 0.43003E-04    rms(broyden)= 0.43001E-04
  rms(prec ) = 0.99085E-04
  weight for this iteration     100.00

[...]

 Broyden mixing:
  rms(total) = 0.11721E-05    rms(broyden)= 0.11720E-05
  rms(prec ) = 0.25439E-05
  weight for this iteration     100.00

 eigenvalues of (default mixing * dielectric matrix)
  average eigenvalue GAMMA=   1.8372
  1.1719  2.5025

 Free energy of the ion-electron system (eV)
  ---------------------------------------------------
  alpha Z        PSCENC =         2.15357760
  Ewald energy   TEWEN  =      -188.18674399
  -1/2 Hartree   DENC   =       -24.55176645
  -V(xc)+E(xc)   XCENC  =       -35.22394187
  PAW double counting   =        76.44930578      -12.57699891
  entropy T*S    EENTRO =         0.00000000
  eigenvalues    EBANDS =       -27.89137033
  atomic energy  EATOM  =       182.03422908
  ---------------------------------------------------
  free energy    TOTEN  =       -27.79370909 eV

  energy without entropy =      -27.79370909  energy(sigma->0) =      -27.79370909


--------------------------------------------------------------------------------------------------------




----------------------------------------- Iteration   20(   4)  ---------------------------------------


    POTLOK:  VPU time    0.24: CPU time    0.24
    SETDIJ:  VPU time    0.01: CPU time    0.01
    EDDIAG:  VPU time    0.30: CPU time    0.30
  RMM-DIIS:  VPU time    0.87: CPU time    0.87
    ORTHCH:  VPU time    0.02: CPU time    0.02
    DOS   :  VPU time    0.00: CPU time    0.00
    CHARGE:  VPU time    0.10: CPU time    0.10
    MIXING:  VPU time    0.01: CPU time    0.01
    ------------------------------------------
      LOOP:  VPU time    1.54: CPU time    1.55

 eigenvalue-minimisations  :   129
 total energy-change (2. order) :-0.2448644E-08  (-0.2007214E-11)
 number of electron   12.0000000 magnetization 
 augmentation part    -0.0197019 magnetization 

 Broyden mixing:
  rms(total) = 0.56158E-06    rms(broyden)= 0.56157E-06
  rms(prec ) = 0.12507E-05
  weight for this iteration     100.00

 eigenvalues of (default mixing * dielectric matrix)
  average eigenvalue GAMMA=   2.1784
  0.9793  3.0268  2.5292

 Free energy of the ion-electron system (eV)
  ---------------------------------------------------
  alpha Z        PSCENC =         2.15357760
  Ewald energy   TEWEN  =      -188.18674399
  -1/2 Hartree   DENC   =       -24.55175012
  -V(xc)+E(xc)   XCENC  =       -35.22394365
  PAW double counting   =        76.44931868      -12.57701198
  entropy T*S    EENTRO =         0.00000000
  eigenvalues    EBANDS =       -27.89138472
  atomic energy  EATOM  =       182.03422908
  ---------------------------------------------------
  free energy    TOTEN  =       -27.79370910 eV

  energy without entropy =      -27.79370910  energy(sigma->0) =      -27.79370910


--------------------------------------------------------------------------------------------------------




----------------------------------------- Iteration   20(   5)  ---------------------------------------


    POTLOK:  VPU time    0.24: CPU time    0.24
    SETDIJ:  VPU time    0.01: CPU time    0.01
    EDDIAG:  VPU time    0.30: CPU time    0.30
  RMM-DIIS:  VPU time    0.71: CPU time    0.71
    ORTHCH:  VPU time    0.02: CPU time    0.02
    DOS   :  VPU time    0.00: CPU time    0.00
    CHARGE:  VPU time    0.10: CPU time    0.10
    MIXING:  VPU time    0.01: CPU time    0.01
    ------------------------------------------
      LOOP:  VPU time    1.39: CPU time    1.39

 eigenvalue-minimisations  :    69
 total energy-change (2. order) : 0.1036284E-08  (-0.9356266E-12)
 number of electron   12.0000000 magnetization 
 augmentation part    -0.0197019 magnetization 

 Broyden mixing:
  rms(total) = 0.17688E-06    rms(broyden)= 0.17688E-06
  rms(prec ) = 0.46602E-06
  weight for this iteration     100.00

 eigenvalues of (default mixing * dielectric matrix)
  average eigenvalue GAMMA=   1.7881
  2.8024  2.4460  0.9519  0.9519

 Free energy of the ion-electron system (eV)
  ---------------------------------------------------
  alpha Z        PSCENC =         2.15357760
  Ewald energy   TEWEN  =      -188.18674399
  -1/2 Hartree   DENC   =       -24.55175393
  -V(xc)+E(xc)   XCENC  =       -35.22394355
  PAW double counting   =        76.44931323      -12.57700611
  entropy T*S    EENTRO =         0.00000000
  eigenvalues    EBANDS =       -27.89138142
  atomic energy  EATOM  =       182.03422908
  ---------------------------------------------------
  free energy    TOTEN  =       -27.79370909 eV

  energy without entropy =      -27.79370909  energy(sigma->0) =      -27.79370909


--------------------------------------------------------------------------------------------------------




----------------------------------------- Iteration   20(   6)  ---------------------------------------


    POTLOK:  VPU time    0.24: CPU time    0.24
    SETDIJ:  VPU time    0.01: CPU time    0.01
    EDDIAG:  VPU time    0.30: CPU time    0.30
  RMM-DIIS:  VPU time    0.64: CPU time    0.64
    ORTHCH:  VPU time    0.02: CPU time    0.02
    DOS   :  VPU time    0.00: CPU time    0.00
    ------------------------------------------
      LOOP:  VPU time    1.22: CPU time    1.22

 eigenvalue-minimisations  :    37
 total energy-change (2. order) :-0.1216449E-09  ( 0.0000000E+00)
 number of electron   12.0000000 magnetization 
 augmentation part    -0.0197019 magnetization 

 Free energy of the ion-electron system (eV)
  ---------------------------------------------------
  alpha Z        PSCENC =         2.15357760
  Ewald energy   TEWEN  =      -188.18674399
  -1/2 Hartree   DENC   =       -24.55175446
  -V(xc)+E(xc)   XCENC  =       -35.22394345
  PAW double counting   =        76.44931396      -12.57700690
  entropy T*S    EENTRO =         0.00000000
  eigenvalues    EBANDS =       -27.89138094
  atomic energy  EATOM  =       182.03422908
  ---------------------------------------------------
  free energy    TOTEN  =       -27.79370909 eV

  energy without entropy =      -27.79370909  energy(sigma->0) =      -27.79370909


--------------------------------------------------------------------------------------------------------




 average (electrostatic) potential at core
  the test charge radii are     0.4325  1.0406
  (the norm of the test charge is              1.0000)
       1 -36.5859       2 -36.5859       3 -36.5859       4 -36.5859       5 -36.5859
       6 -36.5859       7 -77.7794       8 -77.7794
 
 
 
 E-fermi :   1.2688     XC(G=0):  -8.7100     alpha+bet : -9.5272
   add alpha+bet to get absolut eigen values

 k-point   1 :       0.1250    0.1250    0.1250
  band No.  band energies     occupation 
      1      -7.6430      2.00000
      2      -2.1426      2.00000
      3      -0.9422      2.00000
      4      -0.9422      2.00000
      5       0.6164      2.00000
      6       0.6164      2.00000
      7       3.5844      0.00000
      8       6.7879      0.00000
      9       6.7879      0.00000
     10       6.9450      0.00000
     11       7.5987      0.00000
     12       8.4546      0.00000
     13       8.4546      0.00000
     14      10.6498      0.00000
     15      12.5725      0.00000
     16      16.1386      0.00000

 k-point   2 :       0.3750    0.1250    0.1250
  band No.  band energies     occupation 
      1      -6.8734      2.00000
      2      -3.3572      2.00000
      3      -1.9811      2.00000
      4      -0.5838      2.00000
      5      -0.4988      2.00000
      6       0.5909      2.00000
      7       4.7800      0.00000
      8       5.6410      0.00000
      9       7.6373      0.00000
     10       7.7998      0.00000
     11       8.2234      0.00000
     12      10.5541      0.00000
     13      11.0656      0.00000
     14      11.7398      0.00000
     15      13.5745      0.00000
     16      14.7762      0.00000

 k-point   3 :      -0.3750    0.1250    0.1250
  band No.  band energies     occupation 
      1      -5.6732      2.00000
      2      -4.9986      2.00000
      3      -1.5107      2.00000
      4      -1.3516      2.00000
      5      -0.5812      2.00000
      6       0.1632      2.00000
      7       4.8059      0.00000
      8       5.5396      0.00000
      9       7.5880      0.00000
     10       9.3237      0.00000
     11      10.3367      0.00000
     12      11.1672      0.00000
     13      11.3642      0.00000
     14      12.4220      0.00000
     15      12.7309      0.00000
     16      15.0582      0.00000

 k-point   4 :      -0.1250    0.1250    0.1250
  band No.  band energies     occupation 
      1      -7.2241      2.00000
      2      -2.4021      2.00000
      3      -1.4244      2.00000
      4      -1.3416      2.00000
      5      -0.2999      2.00000
      6       0.5888      2.00000
      7       4.1941      0.00000
      8       6.3779      0.00000
      9       6.6470      0.00000
     10       7.4032      0.00000
     11       8.1418      0.00000
     12       8.7710      0.00000
     13      11.0172      0.00000
     14      12.6121      0.00000
     15      14.1370      0.00000
     16      14.6532      0.00000

 k-point   5 :       0.3750    0.3750    0.1250
  band No.  band energies     occupation 
      1      -6.5513      2.00000
      2      -3.3792      2.00000
      3      -1.8503      2.00000
      4      -1.6956      2.00000
      5      -1.2374      2.00000
      6       0.8278      2.00000
      7       6.0368      0.00000
      8       6.7318      0.00000
      9       7.6741      0.00000
     10       8.1903      0.00000
     11       8.8904      0.00000
     12      10.4244      0.00000
     13      11.0328      0.00000
     14      11.7744      0.00000
     15      13.5327      0.00000
     16      15.5522      0.00000

 k-point   6 :      -0.3750    0.3750    0.1250
  band No.  band energies     occupation 
      1      -5.2287      2.00000
      2      -4.3980      2.00000
      3      -2.9128      2.00000
      4      -2.5729      2.00000
      5      -0.5778      2.00000
      6       0.6249      2.00000
      7       6.3356      0.00000
      8       7.2370      0.00000
      9       7.9951      0.00000
     10       8.7781      0.00000
     11      10.1437      0.00000
     12      10.5845      0.00000
     13      11.1382      0.00000
     14      12.5906      0.00000
     15      13.5828      0.00000
     16      14.1049      0.00000

 k-point   7 :      -0.1250    0.3750    0.1250
  band No.  band energies     occupation 
      1      -6.0772      2.00000
      2      -4.0190      2.00000
      3      -2.2125      2.00000
      4      -1.6361      2.00000
      5      -0.6096      2.00000
      6       0.2127      2.00000
      7       5.7477      0.00000
      8       6.3698      0.00000
      9       7.4011      0.00000
     10       8.3351      0.00000
     11       9.4294      0.00000
     12      10.4504      0.00000
     13      11.4375      0.00000
     14      12.8298      0.00000
     15      13.6605      0.00000
     16      14.4808      0.00000

 k-point   8 :      -0.3750   -0.3750    0.1250
  band No.  band energies     occupation 
      1      -5.5609      2.00000
      2      -3.5285      2.00000
      3      -3.2810      2.00000
      4      -2.0964      2.00000
      5      -1.5814      2.00000
      6       0.7608      2.00000
      7       6.1003      0.00000
      8       7.7330      0.00000
      9       8.0190      0.00000
     10       9.1462      0.00000
     11      10.5776      0.00000
     12      10.7158      0.00000
     13      11.5196      0.00000
     14      12.6855      0.00000
     15      13.5838      0.00000
     16      13.9037      0.00000

 k-point   9 :       0.3750    0.3750    0.3750
  band No.  band energies     occupation 
      1      -6.5922      2.00000
      2      -4.5916      2.00000
      3      -0.7052      2.00000
      4      -0.7052      2.00000
      5      -0.0872      2.00000
      6      -0.0872      2.00000
      7       5.1677      0.00000
      8       6.2146      0.00000
      9       8.0324      0.00000
     10       8.0324      0.00000
     11       8.9516      0.00000
     12      10.1909      0.00000
     13      10.1909      0.00000
     14      12.5607      0.00000
     15      13.1595      0.00000
     16      13.5332      0.00000

 k-point  10 :      -0.3750    0.3750    0.3750
  band No.  band energies     occupation 
      1      -5.5248      2.00000
      2      -4.9800      2.00000
      3      -2.5728      2.00000
      4      -1.4566      2.00000
      5      -0.2463      2.00000
      6       0.5075      2.00000
      7       6.2646      0.00000
      8       6.6909      0.00000
      9       7.8875      0.00000
     10       8.6940      0.00000
     11       9.2651      0.00000
     12      11.4141      0.00000
     13      11.8293      0.00000
     14      12.0249      0.00000
     15      12.1389      0.00000
     16      16.3277      0.00000


--------------------------------------------------------------------------------------------------------


 soft charge-density along one line, spin component           1
         0         1         2         3         4         5         6         7         8         9
 total charge-density along one line
 
 pseudopotential strength for first ion, spin component:           1
 -2.494   0.001   0.000   0.000   0.000
  0.001   0.007   0.000   0.000   0.000
  0.000   0.000  -1.425   0.000   0.000
  0.000   0.000   0.000  -1.425   0.000
  0.000   0.000   0.000   0.000  -1.426
 total augmentation occupancy for first ion, spin component:           1
  1.559  -0.508   0.014   0.001  -0.023
 -0.508   0.192  -0.005   0.000   0.008
  0.014  -0.005   0.001   0.000   0.000
  0.001   0.000   0.000   0.001   0.000
 -0.023   0.008   0.000   0.000   0.001


------------------------ aborting loop because EDIFF is reached ----------------------------------------




--------------------------------------------------------------------------------------------------------


    CHARGE:  VPU time    0.10: CPU time    0.10
    FORLOC:  VPU time    0.02: CPU time    0.01
    FORNL :  VPU time    0.69: CPU time    0.69
    STRESS:  VPU time    2.02: CPU time    2.03
    FORCOR:  VPU time    0.23: CPU time    0.23
    FORHAR:  VPU time    0.08: CPU time    0.07
    MIXING:  VPU time    0.01: CPU time    0.01
 d Force =-0.8121295E-09[-0.688E-09,-0.936E-09]  d Energy = 0.7126692E-07-0.721E-07
 d Force =-0.3142850E-04[-0.314E-04,-0.314E-04]  d Ewald  =-0.1215201E-02 0.118E-02


--------------------------------------------------------------------------------------------------------



  FREE ENERGIE OF THE ION-ELECTRON SYSTEM (eV)
  ---------------------------------------------------
  free  energy   TOTEN  =       -27.793709 eV

  energy  without entropy=      -27.793709  energy(sigma->0) =      -27.793709
 

  FORCE on cell =-STRESS in cart. coord.  units (eV/reduce length):
  Direction    X        Y        Z        XY       YZ       ZX
  --------------------------------------------------------------------------------------
  Alpha Z      2.15      2.15      2.15
  Ewald      -63.34    -63.34    -61.50      0.00      0.00      0.00
  Hartree      7.82      7.82      8.92      0.00      0.00      0.00
  E(xc)      -35.54    -35.54    -35.51      0.00      0.00      0.00
  Local      -17.30    -17.30    -20.45      0.00      0.00      0.00
  n-local     13.71     14.63     14.14      0.35      0.16     -0.38
  augment     -1.28     -1.28     -1.28      0.00      0.00      0.00
  Kinetic     91.26     95.41     93.55     -0.58     -3.53     -1.31
  -------------------------------------------------------------------------------------
  Total        0.01      0.01      0.01      0.00      0.00      0.00
  in kB        0.15      0.15      0.23      0.00      0.00      0.00
  external pressure =        0.18 kB  Pullay stress =        0.00 kB


 VOLUME and BASIS-vectors are now :
 -----------------------------------------------------------------------------
  energy-cutoff  :      900.00
  volume of cell :       68.43
      direct lattice vectors                 reciprocal lattice vectors
     2.583775783  0.000000000  3.945557453     0.258020325  0.000000000  0.084483204
    -1.291887892  2.237615466  3.945557453    -0.129010162  0.223452156  0.084483204
    -1.291887892 -2.237615466  3.945557453    -0.129010162 -0.223452156  0.084483204

  length of vectors
     4.716282531  4.716282531  4.716282531     0.271499355  0.271499355  0.271499355


 FORCES acting on ions
    electron-ion (+dipol)            ewald-force                    non-local-force                 convergence-correction
 -----------------------------------------------------------------------------------------------
   -.491E+01 0.283E+01 -.418E-10   0.578E+01 -.334E+01 -.944E-10   -.876E+00 0.506E+00 -.210E-14   0.255E-06 -.147E-06 0.219E-14
   -.198E-09 -.566E+01 0.131E-09   0.192E-10 0.668E+01 0.337E-10   0.000E+00 -.101E+01 0.000E+00   0.104E-07 0.123E-06 -.747E-07
   0.491E+01 0.283E+01 -.226E-09   -.578E+01 -.334E+01 -.352E-10   0.876E+00 0.506E+00 0.210E-14   -.101E-06 -.705E-07 0.747E-07
   0.491E+01 -.283E+01 0.406E-10   -.578E+01 0.334E+01 -.224E-10   0.876E+00 -.506E+00 0.209E-14   -.255E-06 0.147E-06 -.212E-14
   0.198E-09 0.566E+01 -.131E-09   -.329E-11 -.668E+01 0.399E-10   0.694E-17 0.101E+01 0.000E+00   -.104E-07 -.123E-06 0.747E-07
   -.491E+01 -.283E+01 0.226E-09   0.578E+01 0.334E+01 0.251E-11   -.876E+00 -.506E+00 -.210E-14   0.101E-06 0.705E-07 -.747E-07
   -.302E-12 0.288E-13 -.450E-12   -.357E-10 -.365E-14 -.479E-10   -.207E-24 -.207E-24 0.310E-24   -.388E-16 -.509E-15 0.912E-16
   -.126E-09 -.358E-12 -.127E-09   0.117E-09 0.119E-15 0.124E-09   0.284E-24 0.103E-24 -.517E-24   -.212E-15 0.356E-15 -.289E-15
 -----------------------------------------------------------------------------------------------
   -.127E-09 0.357E-12 -.128E-09   -.164E-14 -.175E-14 -.206E-14   0.222E-15 0.111E-15 -.121E-16   -.513E-15 -.284E-15 -.106E-14
 
 
 POSITION                                       TOTAL-FORCE (eV/Angst)
 -----------------------------------------------------------------------------------
      1.14064      0.83320      6.90473         0.000127     -0.000073      0.000000
     -1.29189      0.57122      6.90473         0.000000      0.000146      0.000000
      0.15125     -1.40442      6.90473        -0.000127     -0.000073      0.000000
     -1.14064     -0.83320      4.93195        -0.000127      0.000073      0.000000
      1.29189     -0.57122      4.93195         0.000000     -0.000146      0.000000
     -0.15125      1.40442      4.93195         0.000127      0.000073      0.000000
      0.00000      0.00000      0.00000         0.000000      0.000000      0.000000
      0.00000      0.00000      5.91834         0.000000      0.000000      0.000000
 -----------------------------------------------------------------------------------
    total drift:                                0.000000      0.000000      0.000000


--------------------------------------------------------------------------------------------------------




--------------------------------------------------------------------------------------------------------


  
 reached required accuracy - stopping structural energy minimisation
 writing wavefunctions
     LOOP+:  VPU time   13.22: CPU time   13.43
  
  
 General timing and accounting informations for this job:
 ========================================================
  
                  Total CPU time used (sec):      386.980
                            User time (sec):      345.070
                          System time (sec):       41.911
                         Elapsed time (sec):      389.627
  
                   Maximum memory used (kb):           0.
                   Average memory used (kb):           0.
  
                          Minor page faults:      5991620
                          Major page faults:           22
                 Voluntary context switches:         4793
