 vasp.4.6.35 3Apr08 complex 
 executed on             LinuxIFC date 2010.07.27  16:02:37
 running on    8 nodes
 distr:  one band on    1 nodes,    8 groups


--------------------------------------------------------------------------------------------------------


 INCAR:
 POTCAR:   PAW_PBE H_h 07Sep2000                  
 POTCAR:   PAW_PBE Al 04Jan2001                   
 POTCAR:   PAW_PBE H_h 07Sep2000                  
   VRHFIN =H: ultrasoft test                                                    
   LEXCH  = PE                                                                  
   EATOM  =    12.4943 eV,     .9183 Ry                                         
                                                                                
   TITEL  = PAW_PBE H_h 07Sep2000                                               
   LULTRA =        F    use ultrasoft PP ?                                      
   IUNSCR =        0    unscreen: 0-lin 1-nonlin 2-no                           
   RPACOR =     .000    partial core radius                                     
   POMASS =    1.000; ZVAL   =    1.000    mass and valenz                      
   RCORE  =     .800    outmost cutoff radius                                   
   RWIGS  =     .700; RWIGS  =     .370    wigner-seitz radius (au A)           
   ENMAX  =  700.000; ENMIN  =  500.000 eV                                      
   RCLOC  =     .701    cutoff for local pot                                    
   LCOR   =        T    correct aug charges                                     
   LPAW   =        T    paw PP                                                  
   EAUG   = 1000.000                                                            
   RMAX   =    1.606    core radius for proj-oper                               
   RAUG   =    1.000    factor for augmentation sphere                          
   RDEP   =     .817    radius for radial grids                                 
   QCUT   =   -7.783; QGAM   =   15.567    optimization parameters              
                                                                                
   Description                                                                  
     l     E      TYP  RCUT    TYP  RCUT                                        
     0   .000     23   .800                                                     
     0   .500     23   .800                                                     
     1  -.500     23   .800                                                     
  local pseudopotential read in
  atomic valenz-charges read in
  non local Contribution for L=           0  read in
    real space projection operators read in
  non local Contribution for L=           0  read in
    real space projection operators read in
  non local Contribution for L=           1  read in
    real space projection operators read in
    PAW grid and wavefunctions read in
 
   number of l-projection  operators is LMAX  =           3
   number of lm-projection operators is LMMAX =           5
 
 POTCAR:   PAW_PBE Al 04Jan2001                   
   VRHFIN =Al: s2p1                                                             
   LEXCH  = PE                                                                  
   EATOM  =    53.5387 eV,    3.9350 Ry                                         
                                                                                
   TITEL  = PAW_PBE Al 04Jan2001                                                
   LULTRA =        F    use ultrasoft PP ?                                      
   IUNSCR =        1    unscreen: 0-lin 1-nonlin 2-no                           
   RPACOR =    1.500    partial core radius                                     
   POMASS =   26.982; ZVAL   =    3.000    mass and valenz                      
   RCORE  =    1.900    outmost cutoff radius                                   
   RWIGS  =    2.650; RWIGS  =    1.402    wigner-seitz radius (au A)           
   ENMAX  =  240.300; ENMIN  =  180.225 eV                                      
   ICORE  =        2    local potential                                         
   LCOR   =        T    correct aug charges                                     
   LPAW   =        T    paw PP                                                  
   EAUG   =  291.052                                                            
   DEXC   =    -.041                                                            
   RMAX   =    2.974    core radius for proj-oper                               
   RAUG   =    1.300    factor for augmentation sphere                          
   RDEP   =    1.966    radius for radial grids                                 
   QCUT   =   -4.203; QGAM   =    8.405    optimization parameters              
                                                                                
   Description                                                                  
     l     E      TYP  RCUT    TYP  RCUT                                        
     0   .000     23  1.900                                                     
     0   .000     23  1.900                                                     
     1   .000     23  1.900                                                     
     1  1.000     23  1.900                                                     
     2   .000      7  1.900                                                     
  local pseudopotential read in
  partial core-charges read in
  atomic valenz-charges read in
  non local Contribution for L=           0  read in
    real space projection operators read in
  non local Contribution for L=           0  read in
    real space projection operators read in
  non local Contribution for L=           1  read in
    real space projection operators read in
  non local Contribution for L=           1  read in
    real space projection operators read in
    PAW grid and wavefunctions read in
 
   number of l-projection  operators is LMAX  =           4
   number of lm-projection operators is LMMAX =           8
 

 ----------------------------------------------------------------------------- 
|                                                                             |
|  ADVICE TO THIS USER RUNNING 'VASP/VAMP'   (HEAR YOUR MASTER'S VOICE ...):  |
|                                                                             |
|      You have a (more or less) 'small supercell' and for smaller cells      |
|      it is recommended  to use the reciprocal-space projection scheme!      |
|      The real space optimization is not  efficient for small cells and it   |
|      is also less accurate ...                                              |
|      Therefore set LREAL=.FALSE. in the  INCAR file                         |
|                                                                             |
 ----------------------------------------------------------------------------- 

 Optimization of the real space projectors (new method)

 maximal supplied QI-value         = 47.24
 optimisation between [QCUT,QGAM] = [ 12.76, 25.98] = [ 45.56,189.06] Ry 
 Optimized for a Real-space Cutoff    1.12 Angstroem

   l    n(q)    QCUT    max X(q) W(low)/X(q) W(high)/X(q)  e(spline) 
   0      9    12.756     3.731    0.18E-04    0.26E-05    0.14E-06
   0      9    12.756    31.371    0.18E-03    0.15E-04    0.51E-06
   1      8    12.756     1.978    0.21E-03    0.53E-03    0.54E-06
 Optimization of the real space projectors (new method)

 maximal supplied QI-value         = 19.84
 optimisation between [QCUT,QGAM] = [ 12.90, 25.99] = [ 46.58,189.20] Ry 
 Optimized for a Real-space Cutoff    1.05 Angstroem

   l    n(q)    QCUT    max X(q) W(low)/X(q) W(high)/X(q)  e(spline) 
   0      8    12.897    13.410    0.17E-04    0.18E-05    0.24E-07
   0      8    12.897   140.052    0.22E-03    0.11E-03    0.29E-06
   1      8    12.897     9.624    0.48E-04    0.71E-04    0.38E-07
   1      8    12.897    53.353    0.56E-04    0.37E-03    0.17E-06
 PAW_PBE H_h 07Sep2000                  :
 energy of atom  1       EATOM=  -12.4943
 kinetic energy error for atom=    0.0110 (will be added to EATOM!!)
 PAW_PBE Al 04Jan2001                   :
 energy of atom  2       EATOM=  -53.5387
 kinetic energy error for atom=    0.0001 (will be added to EATOM!!)
 
 EXHCAR: internal setup
 exchange correlation table for  LEXCH =        8
   RHO(1)=    0.500       N(1)  =     2000
   RHO(2)=  100.500       N(2)  =     4000
 
 POSCAR:  H 6   Al 2                             
  positions in cartesian coordinates
  No initial velocities read in
 


--------------------------------------------------------------------------------------------------------


 ion  position               nearest neighbor table
   1  0.884  0.616  0.250-   7 1.72   8 1.72
   2  0.250  0.884  0.616-   8 1.72   7 1.72
   3  0.616  0.250  0.884-   8 1.72   7 1.72
   4  0.116  0.384  0.750-   7 1.72   8 1.72
   5  0.750  0.116  0.384-   8 1.72   7 1.72
   6  0.384  0.750  0.116-   8 1.72   7 1.72
   7  0.000  0.000  0.000-   4 1.72   1 1.72   6 1.72   3 1.72   5 1.72   2 1.72   8 3.23   8 3.23
                             8 3.23   8 3.23   8 3.23   8 3.23
   8  0.500  0.500  0.500-   3 1.72   2 1.72   6 1.72   5 1.72   1 1.72   4 1.72   7 3.23   7 3.23
                             7 3.23   7 3.23   7 3.23   7 3.23
 
  LATTYP: Found a trigonal (rhomboedric) cell.
 ALAT       =     4.6954103261
 COS(alpha) =     0.5540071596
  
  Lattice vectors:
  
 A1 = (   2.5603059450,   0.0000000000,   3.9359511680)
 A2 = (  -1.2801529730,   2.2172899900,   3.9359511680)
 A3 = (  -1.2801529730,  -2.2172899900,   3.9359511680)
 Subroutine PRICEL returns:
 Original cell was already a primitive cell.
 

Analysis of symmetry for initial positions (statically):

 Routine SETGRP: Setting up the symmetry group for a 
 trigonal (rhombohedral) supercell.


 Subroutine GETGRP returns: Found 12 space group operations
 (whereof  6 operations were pure point group operations)
 out of a pool of 12 trial point group operations.


The static configuration has the point symmetry S_6 .
 The point group associated with its full space group is D_3d.

Analysis of symmetry for dynamics (positions and initial velocities):

 Subroutine DYNSYM returns: Found 12 space group operations
 (whereof  6 operations were pure point group operations)
 out of a pool of 12 trial space group operations
 (whereof  6 operations were pure point group operations)
 and found also     1 'primitive' translations


The dynamic configuration has the point symmetry S_6 .
 The point group associated with its full space group is D_3d.
 
 
 KPOINTS: 4x4x4                                   

Automatic generation of k-mesh.
 
 Subroutine IBZKPT returns following result:
 ===========================================
 
 Found     10 irreducible k-points:
 
 Following reciprocal coordinates:
            Coordinates               Weight
  0.125000  0.125000  0.125000      2.000000
  0.375000  0.125000  0.125000      6.000000
 -0.375000  0.125000  0.125000      6.000000
 -0.125000  0.125000  0.125000      6.000000
  0.375000  0.375000  0.125000      6.000000
 -0.375000  0.375000  0.125000     12.000000
 -0.125000  0.375000  0.125000     12.000000
 -0.375000 -0.375000  0.125000      6.000000
  0.375000  0.375000  0.375000      2.000000
 -0.375000  0.375000  0.375000      6.000000
 
 Following cartesian coordinates:
            Coordinates               Weight
  0.000000  0.000000  0.031759      2.000000
  0.065096  0.000000  0.052931      6.000000
 -0.130193  0.000000 -0.010586      6.000000
 -0.065096  0.000000  0.010586      6.000000
  0.032548  0.056375  0.074103      6.000000
 -0.162741  0.056375  0.010586     12.000000
 -0.097645  0.056375  0.031759     12.000000
 -0.065096 -0.112750 -0.052931      6.000000
  0.000000  0.000000  0.095276      2.000000
 -0.195289  0.000000  0.031759      6.000000
 


--------------------------------------------------------------------------------------------------------




 Dimension of arrays:
   k-Points           NKPTS =     10   number of bands    NBANDS=     16
   number of dos      NEDOS =    301   number of ions     NIONS =      8
   non local maximal  LDIM  =      4   non local SUM 2l+1 LMDIM =      8
   total plane-waves  NPLWV =  64000
   max r-space proj   IRMAX =   5600   max aug-charges    IRDMAX=  37354
   dimension x,y,z NGX =    40 NGY =   40 NGZ =   40
   dimension x,y,z NGXF=    80 NGYF=   80 NGZF=   80
   support grid    NGXF=    80 NGYF=   80 NGZF=   80
   ions per type =               6   2
 NGX,Y,Z   is equivalent  to a cutoff of  14.16, 14.16, 14.16 a.u.
 NGXF,Y,Z  is equivalent  to a cutoff of  28.32, 28.32, 28.32 a.u.


 I would recommend the setting:
   dimension x,y,z NGX =    39 NGY =   39 NGZ =   39
 SYSTEM =  idruro di alluminio                     
 POSCAR =   H 6   Al 2                             

 Startparameter for this run:
   NWRITE =      2    write-flag & timer
   PREC   = acc       medium, high low
   ISTART =      0    job   : 0-new  1-cont  2-samecut
   ICHARG =      2    charge: 1-file 2-atom 10-const
   ISPIN  =      1    spin polarized calculation?
   LNONCOLLINEAR =      F non collinear calculations
   LSORBIT =      F    spin-orbit coupling
   INIWAV =      1    electr: 0-lowe 1-rand  2-diag
   LASPH  =      F    aspherical Exc in radial PAW
   METAGGA=      F    non-selfconsistent MetaGGA calc.

 Electronic Relaxation 1
   ENCUT  =  650.0 eV  47.77 Ry    6.91 a.u.   9.76  9.76  9.76*2*pi/ulx,y,z
   ENINI  =  650.0     initial cutoff
   ENAUG  = 1000.0 eV  augmentation charge cutoff
   NELM   =     60;   NELMIN=  2; NELMDL=-12     # of ELM steps 
   EDIFF  = 0.1E-08   stopping-criterion for ELM
   LREAL  =      T    real-space projection
   LCOMPAT=      F    compatible to vasp.4.4
   LREAL_COMPAT= F    compatible to vasp.4.5.1-3
   GGA_COMPAT  = T    GGA compatible to vasp.4.4-vasp.4.6
   LMAXPAW     = -100 max onsite density
   LMAXMIX     =    2 max onsite mixed and CHGCAR
   VOSKOWN=      0    Vosko Wilk Nusair interpolation
   ROPT   =   -0.00025  -0.00025
 Ionic relaxation
   EDIFFG = 0.1E-06   stopping-criterion for IOM
   NSW    =     97    number of steps for IOM
   NBLOCK =      1;   KBLOCK =      1    inner block; outer block 
   IBRION =      5    ionic relax: 0-MD 1-quasi-New 2-CG
   NFREE  =      2    steps in history (QN), initial steepest desc. (CG)
   ISIF   =      3    stress and relaxation
   IWAVPR =     11    prediction:  0-non 1-charg 2-wave 3-comb
   ISYM   =      2    0-nonsym 1-usesym 2-fastsym
   LCORR  =      T    Harris-Foulkes like correction to forces

   POTIM  =   0.50    time-step for ionic-motion
   TEIN   =    0.0    initial temperature
   TEBEG  =    0.0;   TEEND  =   0.0 temperature during run
   SMASS  =  -3.00    Nose mass-parameter (am)
   estimated Nose-frequenzy (Omega)   =  0.10E-29 period in steps =****** mass=  -0.504E-27a.u.
   NPACO  =    256;   APACO  = 16.0  distance and # of slots for P.C.
   PSTRESS=    0.0 pullay stress

  Mass of Ions in am
   POMASS =   1.00 26.98
  Ionic Valenz
   ZVAL   =   1.00  3.00
  Atomic Wigner-Seitz radii
   RWIGS  =  -1.00 -1.00
   NELECT =      12.0000    total number of electrons
   NUPDOWN=      -1.0000    fix difference up-down

 DOS related values:
   EMIN   =  10.00;   EMAX   =-10.00  energy-range for DOS
   ISMEAR =     0;   SIGMA  =   0.10  broadening in eV -4-tet -1-fermi 0-gaus

 Electronic relaxation 2 (details)
   IALGO  =     48    algorithm
   LDIAG  =      T    sub-space diagonalisation
   IMIX   =      4    mixing-type and parameters
     AMIX     =   0.40;   BMIX     =  1.00
     AMIX_MAG =   1.60;   BMIX_MAG =  1.00
     AMIN     =   0.10
     WC   =   100.;   INIMIX=   1;  MIXPRE=   1

 Intra band minimization:
   WEIMIN = 0.0010     energy-eigenvalue tresh-hold
   EBREAK =  0.23E-10  absolut break condition
   DEPER  =   0.30     relativ break condition  

   TIME   =   0.10     timestep for ELM

  volume/ion in A,a.u.               =       8.38        56.54
  Fermi-wavevector in a.u.,eV,Ry     =   0.922657 11.582577  0.851295

 Second variation
   LSECVAR=     F    do a second variation
 
 Write flags
   LWAVE  =      T    write WAVECAR
   LCHARG =      T    write CHGCAR
   LVTOT  =      F    write LOCPOT, local potential
   LELF   =      F    write electronic localiz. function (ELF)
   LORBIT =      0    0 simple, 1 ext, 2 COOP (PROOUT)


 Dipole corrections
   IDIPOL =      0    1-x, 2-y, 3-z
   LDIPOL =      F    correct potential



--------------------------------------------------------------------------------------------------------


 finite differences
 charge density will be updated during run
 non-spin polarized calculation
 RMM-DIIS sequential band-by-band
 performe sub-space diagonalisation
    before iterative eigenvector-optimisation
 modified Broyden-mixing scheme, WC =      100.0
 initial mixing is a Kerker type mixing with AMIX =  0.4000 and BMIX =      1.0000
 Hartree-type preconditioning will be used
 using additional bands           10
 real space projection scheme for non local part
 use partial core corrections
 calculate Harris-corrections to forces 
   (improved forces if not selfconsistent)
 use gradient corrections 
 use of overlap-Matrix (Vanderbilt PP)
 Gauss-broadening in eV      SIGMA  =   0.10


--------------------------------------------------------------------------------------------------------


  energy-cutoff  :      650.00
  volume of cell :       67.03
      direct lattice vectors                 reciprocal lattice vectors
     2.560305945  0.000000000  3.935951168     0.260385548  0.000000000  0.084689398
    -1.280152973  2.217289990  3.935951168    -0.130192774  0.225500499  0.084689398
    -1.280152973 -2.217289990  3.935951168    -0.130192774 -0.225500499  0.084689398

  length of vectors
     4.695410326  4.695410326  4.695410326     0.273811847  0.273811847  0.273811847


 
 k-points in units of 2pi/SCALE and weight: 4x4x4                                   
   0.00000000  0.00000000  0.03175852       0.031
   0.06509639  0.00000000  0.05293087       0.094
  -0.13019277  0.00000000 -0.01058617       0.094
  -0.06509639  0.00000000  0.01058617       0.094
   0.03254819  0.05637512  0.07410322       0.094
  -0.16274097  0.05637512  0.01058617       0.188
  -0.09764458  0.05637512  0.03175852       0.188
  -0.06509639 -0.11275025 -0.05293087       0.094
   0.00000000  0.00000000  0.09527557       0.031
  -0.19528916  0.00000000  0.03175852       0.094
 
 k-points in reciprocal lattice and weights: 4x4x4                                   
   0.12500000  0.12500000  0.12500000       0.031
   0.37500000  0.12500000  0.12500000       0.094
  -0.37500000  0.12500000  0.12500000       0.094
  -0.12500000  0.12500000  0.12500000       0.094
   0.37500000  0.37500000  0.12500000       0.094
  -0.37500000  0.37500000  0.12500000       0.188
  -0.12500000  0.37500000  0.12500000       0.188
  -0.37500000 -0.37500000  0.12500000       0.094
   0.37500000  0.37500000  0.37500000       0.031
  -0.37500000  0.37500000  0.37500000       0.094
 
 position of ions in fractional coordinates (direct lattice) 
   0.88402878  0.61597192  0.24999814
   0.25000039  0.88402770  0.61597075
   0.61597228  0.25000017  0.88402640
   0.11597092  0.38402778  0.75000156
   0.74999931  0.11597200  0.38402895
   0.38402743  0.74999953  0.11597331
   0.00000000  0.00000000  0.00000000
   0.50000028  0.50000028  0.50000028
 
 position of ions in cartesian coordinates  (Angst):
   1.15481000  0.81147000  6.88791000
  -1.28015000  0.59436000  6.88791000
   0.12535000 -1.40582000  6.88791000
  -1.15481000 -0.81147000  4.91994000
   1.28015000 -0.59436000  4.91994000
  -0.12535000  1.40582000  4.91994000
   0.00000000  0.00000000  0.00000000
   0.00000000  0.00000000  5.90393000
 


--------------------------------------------------------------------------------------------------------


 k-point  1 :  0.12500.12500.1250  plane waves:   2522
 k-point  2 :  0.37500.12500.1250  plane waves:   2520
 k-point  3 :  -.37500.12500.1250  plane waves:   2520
 k-point  4 :  -.12500.12500.1250  plane waves:   2523
 k-point  5 :  0.37500.37500.1250  plane waves:   2511
 k-point  6 :  -.37500.37500.1250  plane waves:   2538
 k-point  7 :  -.12500.37500.1250  plane waves:   2519
 k-point  8 :  -.3750-.37500.1250  plane waves:   2527
 k-point  9 :  0.37500.37500.3750  plane waves:   2524
 k-point 10 :  -.37500.37500.3750  plane waves:   2516

 maximum and minimum number of plane-waves per node :   2538  2511

 maximum number of plane-waves:   2538
 maximal index in each direction: 
   IXMAX= 10   IYMAX= 10   IZMAX=  9
   IXMIN=-10   IYMIN=-10   IZMIN=-10

 WARNING: wrap around error must be expected set NGX to  42
 WARNING: wrap around error must be expected set NGY to  42
 NGZ is ok and might be reduce to  40

 real space projection operators:
  total allocation   :   1831.44 KBytes
  max/ min on nodes  :   1831.44   1831.44


 parallel 3dFFT wavefunction:
    minimum data exchange during FFTs selected (reduces bandwidth)
 parallel 3dFFT charge:
    minimum data exchange during FFTs selected (reduces bandwidth)

 For storing wavefunctions    6.46 MBYTES are necessary
 For predicting wavefunctions    2.02 MBYTES are necessary
Broyden mixing: mesh for mixing (old mesh)
   NGX = 19   NGY = 19   NGZ = 19
  (NGX  = 80   NGY  = 80   NGZ  = 80)
 gives a total of   6859 points
 initial charge density was supplied:
 charge density of overlapping atoms calculated
 number of electron   12.0000000 magnetization 
 keeping initial charge density in first step


--------------------------------------------------------------------------------------------------------


 Maximum index for non-local projection operator         5404
 Maximum index for augmentation-charges         4471 (set IRDMAX)


--------------------------------------------------------------------------------------------------------


 First call to EWALD:  gamma=   0.436
 Maximum number of real-space cells 3x 3x 3
 Maximum number of reciprocal cells 3x 3x 3

    FEWALD:  VPU time    0.00: CPU time    0.00


----------------------------------------- Iteration    1(   1)  ---------------------------------------


    POTLOK:  VPU time    0.11: CPU time    0.11
    SETDIJ:  VPU time    0.00: CPU time    0.01
    EDDIAG:  VPU time    0.10: CPU time    0.10
  RMM-DIIS:  VPU time    0.45: CPU time    0.45
    ORTHCH:  VPU time    0.01: CPU time    0.01
    DOS   :  VPU time    0.00: CPU time    0.00
    ------------------------------------------
      LOOP:  VPU time    0.68: CPU time    0.68

 eigenvalue-minimisations  :   160
 total energy-change (2. order) : 0.3537614E+02  (-0.2643422E+03)
 number of electron   12.0000000 magnetization 
 augmentation part    12.0000000 magnetization 

 Free energy of the ion-electron system (eV)
  ---------------------------------------------------
  alpha Z        PSCENC =         2.19859438
  Ewald energy   TEWEN  =      -190.65579816
  -1/2 Hartree   DENC   =       -11.64936915
  -V(xc)+E(xc)   XCENC  =       -37.58169861
  PAW double counting   =        71.42637628       -7.53723064
  entropy T*S    EENTRO =        -0.01255935
  eigenvalues    EBANDS =        27.21110509
  atomic energy  EATOM  =       181.97672381
  ---------------------------------------------------
  free energy    TOTEN  =        35.37614365 eV

  energy without entropy =       35.38870300  energy(sigma->0) =       35.38242333


--------------------------------------------------------------------------------------------------------




----------------------------------------- Iteration    1(   2)  ---------------------------------------


    EDDIAG:  VPU time    0.10: CPU time    0.10
  RMM-DIIS:  VPU time    0.46: CPU time    0.45
    ORTHCH:  VPU time    0.01: CPU time    0.01
    DOS   :  VPU time    0.00: CPU time    0.00
    ------------------------------------------
      LOOP:  VPU time    0.56: CPU time    0.57

 eigenvalue-minimisations  :   160
 total energy-change (2. order) :-0.4883184E+02  (-0.4345205E+02)
 number of electron   12.0000000 magnetization 
 augmentation part    12.0000000 magnetization 

 Free energy of the ion-electron system (eV)
  ---------------------------------------------------
  alpha Z        PSCENC =         2.19859438
  Ewald energy   TEWEN  =      -190.65579816
  -1/2 Hartree   DENC   =       -11.64936915
  -V(xc)+E(xc)   XCENC  =       -37.58169861
  PAW double counting   =        71.42637628       -7.53723064
  entropy T*S    EENTRO =        -0.00699062
  eigenvalues    EBANDS =       -21.62630543
  atomic energy  EATOM  =       181.97672381
  ---------------------------------------------------
  free energy    TOTEN  =       -13.45569814 eV

  energy without entropy =      -13.44870751  energy(sigma->0) =      -13.45220283


--------------------------------------------------------------------------------------------------------




----------------------------------------- Iteration    1(   3)  ---------------------------------------


    EDDIAG:  VPU time    0.10: CPU time    0.10
  RMM-DIIS:  VPU time    0.44: CPU time    0.44
    ORTHCH:  VPU time    0.01: CPU time    0.01
    DOS   :  VPU time    0.00: CPU time    0.00
    ------------------------------------------
      LOOP:  VPU time    0.55: CPU time    0.55

 eigenvalue-minimisations  :   160
 total energy-change (2. order) :-0.1364750E+02  (-0.8357732E+01)
 number of electron   12.0000000 magnetization 
 augmentation part    12.0000000 magnetization 

 Free energy of the ion-electron system (eV)
  ---------------------------------------------------
  alpha Z        PSCENC =         2.19859438
  Ewald energy   TEWEN  =      -190.65579816
  -1/2 Hartree   DENC   =       -11.64936915
  -V(xc)+E(xc)   XCENC  =       -37.58169861
  PAW double counting   =        71.42637628       -7.53723064
  entropy T*S    EENTRO =         0.00000000
  eigenvalues    EBANDS =       -35.28079194
  atomic energy  EATOM  =       181.97672381
  ---------------------------------------------------
  free energy    TOTEN  =       -27.10319402 eV

  energy without entropy =      -27.10319402  energy(sigma->0) =      -27.10319402


--------------------------------------------------------------------------------------------------------




----------------------------------------- Iteration    1(   4)  ---------------------------------------


    EDDIAG:  VPU time    0.10: CPU time    0.10
  RMM-DIIS:  VPU time    0.47: CPU time    0.47
    ORTHCH:  VPU time    0.01: CPU time    0.01
    DOS   :  VPU time    0.00: CPU time    0.00
    ------------------------------------------
      LOOP:  VPU time    0.58: CPU time    0.59

 eigenvalue-minimisations  :   160
 total energy-change (2. order) :-0.1723264E+01  (-0.1195190E+01)
 number of electron   12.0000000 magnetization 
 augmentation part    12.0000000 magnetization 

 Free energy of the ion-electron system (eV)
  ---------------------------------------------------
  alpha Z        PSCENC =         2.19859438
  Ewald energy   TEWEN  =      -190.65579816
  -1/2 Hartree   DENC   =       -11.64936915
  -V(xc)+E(xc)   XCENC  =       -37.58169861
  PAW double counting   =        71.42637628       -7.53723064
  entropy T*S    EENTRO =         0.00000000
  eigenvalues    EBANDS =       -37.00405587
  atomic energy  EATOM  =       181.97672381
  ---------------------------------------------------
  free energy    TOTEN  =       -28.82645796 eV

  energy without entropy =      -28.82645796  energy(sigma->0) =      -28.82645796


--------------------------------------------------------------------------------------------------------




----------------------------------------- Iteration    1(   5)  ---------------------------------------


    EDDIAG:  VPU time    0.10: CPU time    0.10
  RMM-DIIS:  VPU time    0.46: CPU time    0.46
    ORTHCH:  VPU time    0.01: CPU time    0.01
    DOS   :  VPU time    0.00: CPU time    0.00
    ------------------------------------------
      LOOP:  VPU time    0.56: CPU time    0.57

 eigenvalue-minimisations  :   160
 total energy-change (2. order) :-0.1933539E+00  (-0.1610558E+00)
 number of electron   12.0000000 magnetization 
 augmentation part    12.0000000 magnetization 

 Free energy of the ion-electron system (eV)
  ---------------------------------------------------
  alpha Z        PSCENC =         2.19859438
  Ewald energy   TEWEN  =      -190.65579816
  -1/2 Hartree   DENC   =       -11.64936915
  -V(xc)+E(xc)   XCENC  =       -37.58169861
  PAW double counting   =        71.42637628       -7.53723064
  entropy T*S    EENTRO =         0.00000000
  eigenvalues    EBANDS =       -37.19740972
  atomic energy  EATOM  =       181.97672381
  ---------------------------------------------------
  free energy    TOTEN  =       -29.01981181 eV

  energy without entropy =      -29.01981181  energy(sigma->0) =      -29.01981181


--------------------------------------------------------------------------------------------------------




----------------------------------------- Iteration    1(   6)  ---------------------------------------


    EDDIAG:  VPU time    0.10: CPU time    0.10
  RMM-DIIS:  VPU time    0.45: CPU time    0.45
    ORTHCH:  VPU time    0.01: CPU time    0.01
    DOS   :  VPU time    0.00: CPU time    0.00
    ------------------------------------------
      LOOP:  VPU time    0.56: CPU time    0.56

 eigenvalue-minimisations  :   160
 total energy-change (2. order) :-0.3237676E-01  (-0.2773491E-01)
 number of electron   12.0000000 magnetization 
 augmentation part    12.0000000 magnetization 

 Free energy of the ion-electron system (eV)
  ---------------------------------------------------
  alpha Z        PSCENC =         2.19859438
  Ewald energy   TEWEN  =      -190.65579816
  -1/2 Hartree   DENC   =       -11.64936915
  -V(xc)+E(xc)   XCENC  =       -37.58169861
  PAW double counting   =        71.42637628       -7.53723064
  entropy T*S    EENTRO =         0.00000000
  eigenvalues    EBANDS =       -37.22978648
  atomic energy  EATOM  =       181.97672381
  ---------------------------------------------------
  free energy    TOTEN  =       -29.05218857 eV

  energy without entropy =      -29.05218857  energy(sigma->0) =      -29.05218857


--------------------------------------------------------------------------------------------------------




----------------------------------------- Iteration    1(   7)  ---------------------------------------


    EDDIAG:  VPU time    0.10: CPU time    0.10
  RMM-DIIS:  VPU time    0.46: CPU time    0.46
    ORTHCH:  VPU time    0.01: CPU time    0.01
    DOS   :  VPU time    0.00: CPU time    0.00
    ------------------------------------------
      LOOP:  VPU time    0.57: CPU time    0.57

 eigenvalue-minimisations  :   160
 total energy-change (2. order) :-0.6649618E-02  (-0.6330357E-02)
 number of electron   12.0000000 magnetization 
 augmentation part    12.0000000 magnetization 

 Free energy of the ion-electron system (eV)
  ---------------------------------------------------
  alpha Z        PSCENC =         2.19859438
  Ewald energy   TEWEN  =      -190.65579816
  -1/2 Hartree   DENC   =       -11.64936915
  -V(xc)+E(xc)   XCENC  =       -37.58169861
  PAW double counting   =        71.42637628       -7.53723064
  entropy T*S    EENTRO =         0.00000000
  eigenvalues    EBANDS =       -37.23643610
  atomic energy  EATOM  =       181.97672381
  ---------------------------------------------------
  free energy    TOTEN  =       -29.05883819 eV

  energy without entropy =      -29.05883819  energy(sigma->0) =      -29.05883819


--------------------------------------------------------------------------------------------------------




----------------------------------------- Iteration    1(   8)  ---------------------------------------


    EDDIAG:  VPU time    0.10: CPU time    0.10
  RMM-DIIS:  VPU time    0.46: CPU time    0.46
    ORTHCH:  VPU time    0.01: CPU time    0.01
    DOS   :  VPU time    0.00: CPU time    0.00
    ------------------------------------------
      LOOP:  VPU time    0.56: CPU time    0.57

 eigenvalue-minimisations  :   160
 total energy-change (2. order) :-0.1835150E-02  (-0.1784813E-02)
 number of electron   12.0000000 magnetization 
 augmentation part    12.0000000 magnetization 

 Free energy of the ion-electron system (eV)
  ---------------------------------------------------
  alpha Z        PSCENC =         2.19859438
  Ewald energy   TEWEN  =      -190.65579816
  -1/2 Hartree   DENC   =       -11.64936915
  -V(xc)+E(xc)   XCENC  =       -37.58169861
  PAW double counting   =        71.42637628       -7.53723064
  entropy T*S    EENTRO =         0.00000000
  eigenvalues    EBANDS =       -37.23827125
  atomic energy  EATOM  =       181.97672381
  ---------------------------------------------------
  free energy    TOTEN  =       -29.06067334 eV

  energy without entropy =      -29.06067334  energy(sigma->0) =      -29.06067334


--------------------------------------------------------------------------------------------------------




----------------------------------------- Iteration    1(   9)  ---------------------------------------


    EDDIAG:  VPU time    0.10: CPU time    0.10
  RMM-DIIS:  VPU time    0.80: CPU time    0.79
    ORTHCH:  VPU time    0.01: CPU time    0.01
    DOS   :  VPU time    0.00: CPU time    0.00
    ------------------------------------------
      LOOP:  VPU time    0.90: CPU time    0.91

 eigenvalue-minimisations  :   327
 total energy-change (2. order) :-0.7812709E-03  (-0.7747352E-03)
 number of electron   12.0000000 magnetization 
 augmentation part    12.0000000 magnetization 

 Free energy of the ion-electron system (eV)
  ---------------------------------------------------
  alpha Z        PSCENC =         2.19859438
  Ewald energy   TEWEN  =      -190.65579816
  -1/2 Hartree   DENC   =       -11.64936915
  -V(xc)+E(xc)   XCENC  =       -37.58169861
  PAW double counting   =        71.42637628       -7.53723064
  entropy T*S    EENTRO =         0.00000000
  eigenvalues    EBANDS =       -37.23905252
  atomic energy  EATOM  =       181.97672381
  ---------------------------------------------------
  free energy    TOTEN  =       -29.06145461 eV

  energy without entropy =      -29.06145461  energy(sigma->0) =      -29.06145461


--------------------------------------------------------------------------------------------------------




----------------------------------------- Iteration    1(  10)  ---------------------------------------


    EDDIAG:  VPU time    0.10: CPU time    0.10
  RMM-DIIS:  VPU time    0.85: CPU time    0.85
    ORTHCH:  VPU time    0.01: CPU time    0.01
    DOS   :  VPU time    0.00: CPU time    0.00
    ------------------------------------------
      LOOP:  VPU time    0.96: CPU time    0.97

 eigenvalue-minimisations  :   361
 total energy-change (2. order) :-0.1051661E-03  (-0.1048883E-03)
 number of electron   12.0000000 magnetization 
 augmentation part    12.0000000 magnetization 

 Free energy of the ion-electron system (eV)
  ---------------------------------------------------
  alpha Z        PSCENC =         2.19859438
  Ewald energy   TEWEN  =      -190.65579816
  -1/2 Hartree   DENC   =       -11.64936915
  -V(xc)+E(xc)   XCENC  =       -37.58169861
  PAW double counting   =        71.42637628       -7.53723064
  entropy T*S    EENTRO =         0.00000000
  eigenvalues    EBANDS =       -37.23915769
  atomic energy  EATOM  =       181.97672381
  ---------------------------------------------------
  free energy    TOTEN  =       -29.06155978 eV

  energy without entropy =      -29.06155978  energy(sigma->0) =      -29.06155978


--------------------------------------------------------------------------------------------------------




----------------------------------------- Iteration    1(  11)  ---------------------------------------


    EDDIAG:  VPU time    0.10: CPU time    0.10
  RMM-DIIS:  VPU time    0.81: CPU time    0.81
    ORTHCH:  VPU time    0.01: CPU time    0.01
    DOS   :  VPU time    0.00: CPU time    0.00
    ------------------------------------------
      LOOP:  VPU time    0.92: CPU time    0.92

 eigenvalue-minimisations  :   331
 total energy-change (2. order) :-0.1607483E-05  (-0.1589910E-05)
 number of electron   12.0000000 magnetization 
 augmentation part    12.0000000 magnetization 

 Free energy of the ion-electron system (eV)
  ---------------------------------------------------
  alpha Z        PSCENC =         2.19859438
  Ewald energy   TEWEN  =      -190.65579816
  -1/2 Hartree   DENC   =       -11.64936915
  -V(xc)+E(xc)   XCENC  =       -37.58169861
  PAW double counting   =        71.42637628       -7.53723064
  entropy T*S    EENTRO =         0.00000000
  eigenvalues    EBANDS =       -37.23915930
  atomic energy  EATOM  =       181.97672381
  ---------------------------------------------------
  free energy    TOTEN  =       -29.06156138 eV

  energy without entropy =      -29.06156138  energy(sigma->0) =      -29.06156138


--------------------------------------------------------------------------------------------------------




----------------------------------------- Iteration    1(  12)  ---------------------------------------


    EDDIAG:  VPU time    0.10: CPU time    0.10
  RMM-DIIS:  VPU time    0.78: CPU time    0.79
    ORTHCH:  VPU time    0.01: CPU time    0.01
    DOS   :  VPU time    0.00: CPU time    0.00
    CHARGE:  VPU time    0.05: CPU time    0.05
    MIXING:  VPU time    0.00: CPU time    0.00
    ------------------------------------------
      LOOP:  VPU time    0.95: CPU time    0.95

 eigenvalue-minimisations  :   331
 total energy-change (2. order) :-0.2681052E-06  (-0.2675402E-06)
 number of electron   11.9999999 magnetization 
 augmentation part    -0.0068830 magnetization 

 Broyden mixing:
  rms(total) = 0.77704E+00    rms(broyden)= 0.77702E+00
  rms(prec ) = 0.17166E+01
  weight for this iteration     100.00

 Free energy of the ion-electron system (eV)
  ---------------------------------------------------
  alpha Z        PSCENC =         2.19859438
  Ewald energy   TEWEN  =      -190.65579816
  -1/2 Hartree   DENC   =       -11.64936915
  -V(xc)+E(xc)   XCENC  =       -37.58169861
  PAW double counting   =        71.42637628       -7.53723064
  entropy T*S    EENTRO =         0.00000000
  eigenvalues    EBANDS =       -37.23915956
  atomic energy  EATOM  =       181.97672381
  ---------------------------------------------------
  free energy    TOTEN  =       -29.06156165 eV

  energy without entropy =      -29.06156165  energy(sigma->0) =      -29.06156165


--------------------------------------------------------------------------------------------------------




----------------------------------------- Iteration    1(  13)  ---------------------------------------


    POTLOK:  VPU time    0.12: CPU time    0.11
    SETDIJ:  VPU time    0.00: CPU time    0.01
    EDDIAG:  VPU time    0.10: CPU time    0.10
  RMM-DIIS:  VPU time    0.80: CPU time    0.80
    ORTHCH:  VPU time    0.01: CPU time    0.01
    DOS   :  VPU time    0.00: CPU time    0.00
    CHARGE:  VPU time    0.05: CPU time    0.05
    MIXING:  VPU time    0.00: CPU time    0.00
    ------------------------------------------
      LOOP:  VPU time    1.08: CPU time    1.09

 eigenvalue-minimisations  :   320
 total energy-change (2. order) : 0.9465741E+00  (-0.3704062E-01)
 number of electron   11.9999999 magnetization 
 augmentation part    -0.0129970 magnetization 

 Broyden mixing:
  rms(total) = 0.41837E+00    rms(broyden)= 0.41837E+00
  rms(prec ) = 0.93883E+00
  weight for this iteration     100.00

 eigenvalues of (default mixing * dielectric matrix)
  average eigenvalue GAMMA=   2.1424
  2.1424

 Free energy of the ion-electron system (eV)
  ---------------------------------------------------
  alpha Z        PSCENC =         2.19859438
  Ewald energy   TEWEN  =      -190.65579816
  -1/2 Hartree   DENC   =       -16.14853018
  -V(xc)+E(xc)   XCENC  =       -36.63382014
  PAW double counting   =        73.04722081       -9.14256046
  entropy T*S    EENTRO =         0.00000000
  eigenvalues    EBANDS =       -32.75681765
  atomic energy  EATOM  =       181.97672381
  ---------------------------------------------------
  free energy    TOTEN  =       -28.11498758 eV

  energy without entropy =      -28.11498758  energy(sigma->0) =      -28.11498758


--------------------------------------------------------------------------------------------------------




----------------------------------------- Iteration    1(  14)  ---------------------------------------


    POTLOK:  VPU time    0.11: CPU time    0.11
    SETDIJ:  VPU time    0.01: CPU time    0.01
    EDDIAG:  VPU time    0.10: CPU time    0.10
  RMM-DIIS:  VPU time    0.79: CPU time    0.79
    ORTHCH:  VPU time    0.01: CPU time    0.01
    DOS   :  VPU time    0.00: CPU time    0.00
    CHARGE:  VPU time    0.05: CPU time    0.05
    MIXING:  VPU time    0.00: CPU time    0.00
    ------------------------------------------
      LOOP:  VPU time    1.07: CPU time    1.08

 eigenvalue-minimisations  :   320
 total energy-change (2. order) : 0.3606629E+00  (-0.6807816E-01)
 number of electron   11.9999999 magnetization 
 augmentation part    -0.0209322 magnetization 

 Broyden mixing:
  rms(total) = 0.44433E-01    rms(broyden)= 0.44386E-01
  rms(prec ) = 0.92505E-01
  weight for this iteration     100.00

 eigenvalues of (default mixing * dielectric matrix)
  average eigenvalue GAMMA=   2.5008
  2.5008  2.5008

 Free energy of the ion-electron system (eV)
  ---------------------------------------------------
  alpha Z        PSCENC =         2.19859438
  Ewald energy   TEWEN  =      -190.65579816
  -1/2 Hartree   DENC   =       -23.23934532
  -V(xc)+E(xc)   XCENC  =       -35.22259545
  PAW double counting   =        76.49533687      -12.59657928
  entropy T*S    EENTRO =         0.00000000
  eigenvalues    EBANDS =       -26.71066155
  atomic energy  EATOM  =       181.97672381
  ---------------------------------------------------
  free energy    TOTEN  =       -27.75432470 eV

  energy without entropy =      -27.75432470  energy(sigma->0) =      -27.75432470


--------------------------------------------------------------------------------------------------------




----------------------------------------- Iteration    1(  15)  ---------------------------------------


    POTLOK:  VPU time    0.11: CPU time    0.11
    SETDIJ:  VPU time    0.01: CPU time    0.01
    EDDIAG:  VPU time    0.10: CPU time    0.10
  RMM-DIIS:  VPU time    0.80: CPU time    0.79
    ORTHCH:  VPU time    0.01: CPU time    0.01
    DOS   :  VPU time    0.00: CPU time    0.00
    CHARGE:  VPU time    0.05: CPU time    0.05
    MIXING:  VPU time    0.00: CPU time    0.00
    ------------------------------------------
      LOOP:  VPU time    1.08: CPU time    1.08

 eigenvalue-minimisations  :   320
 total energy-change (2. order) :-0.6781881E-02  (-0.1641241E-02)
 number of electron   11.9999999 magnetization 
 augmentation part    -0.0201965 magnetization 

 Broyden mixing:
  rms(total) = 0.11288E-01    rms(broyden)= 0.11278E-01
  rms(prec ) = 0.25539E-01
  weight for this iteration     100.00

 eigenvalues of (default mixing * dielectric matrix)
  average eigenvalue GAMMA=   2.0949
  2.7240  1.7804  1.7804

 Free energy of the ion-electron system (eV)
  ---------------------------------------------------
  alpha Z        PSCENC =         2.19859438
  Ewald energy   TEWEN  =      -190.65579816
  -1/2 Hartree   DENC   =       -23.42799933
  -V(xc)+E(xc)   XCENC  =       -35.19773141
  PAW double counting   =        76.71238002      -12.85077286
  entropy T*S    EENTRO =         0.00000000
  eigenvalues    EBANDS =       -26.51650304
  atomic energy  EATOM  =       181.97672381
  ---------------------------------------------------
  free energy    TOTEN  =       -27.76110658 eV

  energy without entropy =      -27.76110658  energy(sigma->0) =      -27.76110658


--------------------------------------------------------------------------------------------------------




----------------------------------------- Iteration    1(  16)  ---------------------------------------


    POTLOK:  VPU time    0.11: CPU time    0.11
    SETDIJ:  VPU time    0.00: CPU time    0.01
    EDDIAG:  VPU time    0.10: CPU time    0.10
  RMM-DIIS:  VPU time    0.80: CPU time    0.80
    ORTHCH:  VPU time    0.01: CPU time    0.01
    DOS   :  VPU time    0.00: CPU time    0.00
    CHARGE:  VPU time    0.05: CPU time    0.05
    MIXING:  VPU time    0.00: CPU time    0.00
    ------------------------------------------
      LOOP:  VPU time    1.08: CPU time    1.08

 eigenvalue-minimisations  :   320
 total energy-change (2. order) : 0.7143750E-04  (-0.1100397E-03)
 number of electron   11.9999999 magnetization 
 augmentation part    -0.0205435 magnetization 

 Broyden mixing:
  rms(total) = 0.38130E-02    rms(broyden)= 0.38096E-02
  rms(prec ) = 0.70333E-02
  weight for this iteration     100.00

 eigenvalues of (default mixing * dielectric matrix)
  average eigenvalue GAMMA=   2.1602
  0.9737  3.0961  2.4715  2.0995

 Free energy of the ion-electron system (eV)
  ---------------------------------------------------
  alpha Z        PSCENC =         2.19859438
  Ewald energy   TEWEN  =      -190.65579816
  -1/2 Hartree   DENC   =       -23.62673253
  -V(xc)+E(xc)   XCENC  =       -35.15849062
  PAW double counting   =        76.74685598      -12.88045265
  entropy T*S    EENTRO =         0.00000000
  eigenvalues    EBANDS =       -26.36173535
  atomic energy  EATOM  =       181.97672381
  ---------------------------------------------------
  free energy    TOTEN  =       -27.76103514 eV

  energy without entropy =      -27.76103514  energy(sigma->0) =      -27.76103514


--------------------------------------------------------------------------------------------------------




----------------------------------------- Iteration    1(  17)  ---------------------------------------


    POTLOK:  VPU time    0.11: CPU time    0.11
    SETDIJ:  VPU time    0.01: CPU time    0.01
    EDDIAG:  VPU time    0.10: CPU time    0.10
  RMM-DIIS:  VPU time    0.79: CPU time    0.79
    ORTHCH:  VPU time    0.01: CPU time    0.01
    DOS   :  VPU time    0.00: CPU time    0.00
    CHARGE:  VPU time    0.05: CPU time    0.05
    MIXING:  VPU time    0.00: CPU time    0.00
    ------------------------------------------
      LOOP:  VPU time    1.07: CPU time    1.08

 eigenvalue-minimisations  :   320
 total energy-change (2. order) :-0.1104063E-03  (-0.2116247E-04)
 number of electron   11.9999999 magnetization 
 augmentation part    -0.0205089 magnetization 

 Broyden mixing:
  rms(total) = 0.10996E-02    rms(broyden)= 0.10992E-02
  rms(prec ) = 0.19486E-02
  weight for this iteration     100.00

 eigenvalues of (default mixing * dielectric matrix)
  average eigenvalue GAMMA=   1.9475
  2.9253  2.3548  2.2438  1.0029  1.2109

 Free energy of the ion-electron system (eV)
  ---------------------------------------------------
  alpha Z        PSCENC =         2.19859438
  Ewald energy   TEWEN  =      -190.65579816
  -1/2 Hartree   DENC   =       -23.60914501
  -V(xc)+E(xc)   XCENC  =       -35.16325556
  PAW double counting   =        76.66051278      -12.79105150
  entropy T*S    EENTRO =         0.00000000
  eigenvalues    EBANDS =       -26.37772628
  atomic energy  EATOM  =       181.97672381
  ---------------------------------------------------
  free energy    TOTEN  =       -27.76114555 eV

  energy without entropy =      -27.76114555  energy(sigma->0) =      -27.76114555


--------------------------------------------------------------------------------------------------------




----------------------------------------- Iteration    1(  18)  ---------------------------------------


    POTLOK:  VPU time    0.12: CPU time    0.11
    SETDIJ:  VPU time    0.00: CPU time    0.01
    EDDIAG:  VPU time    0.10: CPU time    0.09
  RMM-DIIS:  VPU time    0.79: CPU time    0.79
    ORTHCH:  VPU time    0.01: CPU time    0.01
    DOS   :  VPU time    0.00: CPU time    0.00
    CHARGE:  VPU time    0.05: CPU time    0.05
    MIXING:  VPU time    0.00: CPU time    0.00
    ------------------------------------------
      LOOP:  VPU time    1.07: CPU time    1.07

 eigenvalue-minimisations  :   324
 total energy-change (2. order) :-0.2666346E-05  (-0.8288417E-06)
 number of electron   11.9999999 magnetization 
 augmentation part    -0.0205314 magnetization 

 Broyden mixing:
  rms(total) = 0.34566E-03    rms(broyden)= 0.34549E-03
  rms(prec ) = 0.80839E-03
  weight for this iteration     100.00

 eigenvalues of (default mixing * dielectric matrix)
  average eigenvalue GAMMA=   2.1074
  3.3077  2.9233  2.3682  2.1546  0.9659  0.9246

 Free energy of the ion-electron system (eV)
  ---------------------------------------------------
  alpha Z        PSCENC =         2.19859438
  Ewald energy   TEWEN  =      -190.65579816
  -1/2 Hartree   DENC   =       -23.62300272
  -V(xc)+E(xc)   XCENC  =       -35.16064887
  PAW double counting   =        76.67188230      -12.80232684
  entropy T*S    EENTRO =         0.00000000
  eigenvalues    EBANDS =       -26.36657212
  atomic energy  EATOM  =       181.97672381
  ---------------------------------------------------
  free energy    TOTEN  =       -27.76114822 eV

  energy without entropy =      -27.76114822  energy(sigma->0) =      -27.76114822


--------------------------------------------------------------------------------------------------------




----------------------------------------- Iteration    1(  19)  ---------------------------------------


    POTLOK:  VPU time    0.11: CPU time    0.11
    SETDIJ:  VPU time    0.01: CPU time    0.01
    EDDIAG:  VPU time    0.09: CPU time    0.10
  RMM-DIIS:  VPU time    0.80: CPU time    0.80
    ORTHCH:  VPU time    0.01: CPU time    0.01
    DOS   :  VPU time    0.00: CPU time    0.00
    CHARGE:  VPU time    0.05: CPU time    0.05
    MIXING:  VPU time    0.00: CPU time    0.00
    ------------------------------------------
      LOOP:  VPU time    1.08: CPU time    1.08

 eigenvalue-minimisations  :   320
 total energy-change (2. order) : 0.1270465E-06  (-0.2250906E-06)
 number of electron   11.9999999 magnetization 
 augmentation part    -0.0205188 magnetization 

 Broyden mixing:
  rms(total) = 0.10180E-03    rms(broyden)= 0.10179E-03
  rms(prec ) = 0.20694E-03
  weight for this iteration     100.00

 eigenvalues of (default mixing * dielectric matrix)
  average eigenvalue GAMMA=   1.9378
  3.2554  2.7884  2.3217  2.1464  0.9425  1.0552  1.0552

 Free energy of the ion-electron system (eV)
  ---------------------------------------------------
  alpha Z        PSCENC =         2.19859438
  Ewald energy   TEWEN  =      -190.65579816
  -1/2 Hartree   DENC   =       -23.61935445
  -V(xc)+E(xc)   XCENC  =       -35.16179920
  PAW double counting   =        76.67093411      -12.80147431
  entropy T*S    EENTRO =         0.00000000
  eigenvalues    EBANDS =       -26.36897427
  atomic energy  EATOM  =       181.97672381
  ---------------------------------------------------
  free energy    TOTEN  =       -27.76114809 eV

  energy without entropy =      -27.76114809  energy(sigma->0) =      -27.76114809


--------------------------------------------------------------------------------------------------------




----------------------------------------- Iteration    1(  20)  ---------------------------------------


    POTLOK:  VPU time    0.11: CPU time    0.11
    SETDIJ:  VPU time    0.01: CPU time    0.01
    EDDIAG:  VPU time    0.10: CPU time    0.10
  RMM-DIIS:  VPU time    0.80: CPU time    0.80
    ORTHCH:  VPU time    0.01: CPU time    0.01
    DOS   :  VPU time    0.00: CPU time    0.00
    CHARGE:  VPU time    0.05: CPU time    0.05
    MIXING:  VPU time    0.00: CPU time    0.00
    ------------------------------------------
      LOOP:  VPU time    1.08: CPU time    1.09

 eigenvalue-minimisations  :   333
 total energy-change (2. order) :-0.1410600E-06  (-0.9441200E-08)
 number of electron   11.9999999 magnetization 
 augmentation part    -0.0205185 magnetization 

 Broyden mixing:
  rms(total) = 0.22162E-04    rms(broyden)= 0.22160E-04
  rms(prec ) = 0.43179E-04
  weight for this iteration     100.00

 eigenvalues of (default mixing * dielectric matrix)
  average eigenvalue GAMMA=   1.9846
  3.2109  2.9689  2.5401  2.1600  2.1600  0.9959  0.9781  0.8628

 Free energy of the ion-electron system (eV)
  ---------------------------------------------------
  alpha Z        PSCENC =         2.19859438
  Ewald energy   TEWEN  =      -190.65579816
  -1/2 Hartree   DENC   =       -23.62026339
  -V(xc)+E(xc)   XCENC  =       -35.16159995
  PAW double counting   =        76.67129173      -12.80180511
  entropy T*S    EENTRO =         0.00000000
  eigenvalues    EBANDS =       -26.36829154
  atomic energy  EATOM  =       181.97672381
  ---------------------------------------------------
  free energy    TOTEN  =       -27.76114823 eV

  energy without entropy =      -27.76114823  energy(sigma->0) =      -27.76114823


--------------------------------------------------------------------------------------------------------




----------------------------------------- Iteration    1(  21)  ---------------------------------------


    POTLOK:  VPU time    0.11: CPU time    0.11
    SETDIJ:  VPU time    0.01: CPU time    0.01
    EDDIAG:  VPU time    0.10: CPU time    0.10
  RMM-DIIS:  VPU time    0.78: CPU time    0.78
    ORTHCH:  VPU time    0.01: CPU time    0.01
    DOS   :  VPU time    0.00: CPU time    0.00
    CHARGE:  VPU time    0.05: CPU time    0.05
    MIXING:  VPU time    0.00: CPU time    0.00
    ------------------------------------------
      LOOP:  VPU time    1.06: CPU time    1.07

 eigenvalue-minimisations  :   320
 total energy-change (2. order) :-0.6225702E-07  (-0.8643015E-09)
 number of electron   11.9999999 magnetization 
 augmentation part    -0.0205191 magnetization 

 Broyden mixing:
  rms(total) = 0.11534E-04    rms(broyden)= 0.11533E-04
  rms(prec ) = 0.23028E-04
  weight for this iteration     100.00

 eigenvalues of (default mixing * dielectric matrix)
  average eigenvalue GAMMA=   1.9318
  3.3258  2.9413  2.6494  2.3541  2.0957  1.1661  1.0078  0.9633  0.8830

 Free energy of the ion-electron system (eV)
  ---------------------------------------------------
  alpha Z        PSCENC =         2.19859438
  Ewald energy   TEWEN  =      -190.65579816
  -1/2 Hartree   DENC   =       -23.62062246
  -V(xc)+E(xc)   XCENC  =       -35.16152528
  PAW double counting   =        76.67161183      -12.80212202
  entropy T*S    EENTRO =         0.00000000
  eigenvalues    EBANDS =       -26.36801040
  atomic energy  EATOM  =       181.97672381
  ---------------------------------------------------
  free energy    TOTEN  =       -27.76114829 eV

  energy without entropy =      -27.76114829  energy(sigma->0) =      -27.76114829


--------------------------------------------------------------------------------------------------------




----------------------------------------- Iteration    1(  22)  ---------------------------------------


    POTLOK:  VPU time    0.11: CPU time    0.11
    SETDIJ:  VPU time    0.01: CPU time    0.01
    EDDIAG:  VPU time    0.10: CPU time    0.10
  RMM-DIIS:  VPU time    0.58: CPU time    0.58
    ORTHCH:  VPU time    0.01: CPU time    0.01
    DOS   :  VPU time    0.00: CPU time    0.00
    CHARGE:  VPU time    0.05: CPU time    0.05
    MIXING:  VPU time    0.00: CPU time    0.00
    ------------------------------------------
      LOOP:  VPU time    0.86: CPU time    0.87

 eigenvalue-minimisations  :   220
 total energy-change (2. order) : 0.2565551E-07  (-0.7322471E-10)
 number of electron   11.9999999 magnetization 
 augmentation part    -0.0205188 magnetization 

 Broyden mixing:
  rms(total) = 0.95999E-06    rms(broyden)= 0.95995E-06
  rms(prec ) = 0.18667E-05
  weight for this iteration     100.00

 eigenvalues of (default mixing * dielectric matrix)
  average eigenvalue GAMMA=   1.9549
  3.3317  3.1421  2.7672  2.3520  2.0597  2.0081  1.0124  0.9814  0.9814  0.9124

 Free energy of the ion-electron system (eV)
  ---------------------------------------------------
  alpha Z        PSCENC =         2.19859438
  Ewald energy   TEWEN  =      -190.65579816
  -1/2 Hartree   DENC   =       -23.62044996
  -V(xc)+E(xc)   XCENC  =       -35.16155601
  PAW double counting   =        76.67155257      -12.80206693
  entropy T*S    EENTRO =         0.00000000
  eigenvalues    EBANDS =       -26.36814798
  atomic energy  EATOM  =       181.97672381
  ---------------------------------------------------
  free energy    TOTEN  =       -27.76114827 eV

  energy without entropy =      -27.76114827  energy(sigma->0) =      -27.76114827


--------------------------------------------------------------------------------------------------------




----------------------------------------- Iteration    1(  23)  ---------------------------------------


    POTLOK:  VPU time    0.12: CPU time    0.11
    SETDIJ:  VPU time    0.00: CPU time    0.01
    EDDIAG:  VPU time    0.10: CPU time    0.10
  RMM-DIIS:  VPU time    0.52: CPU time    0.52
    ORTHCH:  VPU time    0.01: CPU time    0.01
    DOS   :  VPU time    0.00: CPU time    0.00
    ------------------------------------------
      LOOP:  VPU time    0.75: CPU time    0.75

 eigenvalue-minimisations  :   197
 total energy-change (2. order) :-0.8160725E-09  (-0.1294846E-10)
 number of electron   11.9999999 magnetization 
 augmentation part    -0.0205188 magnetization 

 Free energy of the ion-electron system (eV)
  ---------------------------------------------------
  alpha Z        PSCENC =         2.19859438
  Ewald energy   TEWEN  =      -190.65579816
  -1/2 Hartree   DENC   =       -23.62045018
  -V(xc)+E(xc)   XCENC  =       -35.16155526
  PAW double counting   =        76.67155700      -12.80207141
  entropy T*S    EENTRO =         0.00000000
  eigenvalues    EBANDS =       -26.36814844
  atomic energy  EATOM  =       181.97672381
  ---------------------------------------------------
  free energy    TOTEN  =       -27.76114827 eV

  energy without entropy =      -27.76114827  energy(sigma->0) =      -27.76114827


--------------------------------------------------------------------------------------------------------




 average (electrostatic) potential at core
  the test charge radii are     0.4325  1.0406
  (the norm of the test charge is              1.0000)
       1 -36.3892       2 -36.3892       3 -36.3892       4 -36.3892       5 -36.3892
       6 -36.3892       7 -77.6117       8 -77.6118
 
 
 
 E-fermi :   1.3771     XC(G=0):  -8.8071     alpha+bet : -9.7263
   add alpha+bet to get absolut eigen values

 k-point   1 :       0.1250    0.1250    0.1250
  band No.  band energies     occupation 
      1      -7.5994      2.00000
      2      -2.0246      2.00000
      3      -0.7308      2.00000
      4      -0.7308      2.00000
      5       0.7491      2.00000
      6       0.7491      2.00000
      7       3.8586      0.00000
      8       6.9238      0.00000
      9       6.9238      0.00000
     10       7.0600      0.00000
     11       7.8579      0.00000
     12       8.6516      0.00000
     13       8.6516      0.00000
     14      10.6707      0.00000
     15      12.7871      0.00000
     16      16.3093      0.00000

 k-point   2 :       0.3750    0.1250    0.1250
  band No.  band energies     occupation 
      1      -6.8133      2.00000
      2      -3.2048      2.00000
      3      -1.8743      2.00000
      4      -0.4040      2.00000
      5      -0.3631      2.00000
      6       0.7683      2.00000
      7       5.0101      0.00000
      8       5.7633      0.00000
      9       7.7901      0.00000
     10       7.9696      0.00000
     11       8.3495      0.00000
     12      10.8671      0.00000
     13      11.3104      0.00000
     14      11.8951      0.00000
     15      13.7064      0.00000
     16      15.0911      0.00000

 k-point   3 :      -0.3750    0.1250    0.1250
  band No.  band energies     occupation 
      1      -5.5763      2.00000
      2      -4.8930      2.00000
      3      -1.4002      2.00000
      4      -1.2110      2.00000
      5      -0.4229      2.00000
      6       0.3158      2.00000
      7       4.9371      0.00000
      8       5.7182      0.00000
      9       7.6894      0.00000
     10       9.4650      0.00000
     11      10.5190      0.00000
     12      11.4887      0.00000
     13      11.6471      0.00000
     14      12.7821      0.00000
     15      12.8745      0.00000
     16      15.5009      0.00000

 k-point   4 :      -0.1250    0.1250    0.1250
  band No.  band energies     occupation 
      1      -7.1680      2.00000
      2      -2.2270      2.00000
      3      -1.2547      2.00000
      4      -1.1929      2.00000
      5      -0.1640      2.00000
      6       0.6980      2.00000
      7       4.4069      0.00000
      8       6.4684      0.00000
      9       6.8185      0.00000
     10       7.5486      0.00000
     11       8.3378      0.00000
     12       9.0138      0.00000
     13      11.3423      0.00000
     14      12.7179      0.00000
     15      14.4356      0.00000
     16      14.9165      0.00000

 k-point   5 :       0.3750    0.3750    0.1250
  band No.  band energies     occupation 
      1      -6.4851      2.00000
      2      -3.2637      2.00000
      3      -1.7109      2.00000
      4      -1.5596      2.00000
      5      -1.0441      2.00000
      6       0.9413      2.00000
      7       6.2603      0.00000
      8       6.9266      0.00000
      9       7.8923      0.00000
     10       8.3814      0.00000
     11       9.0682      0.00000
     12      10.6137      0.00000
     13      11.2519      0.00000
     14      11.9492      0.00000
     15      13.8044      0.00000
     16      15.8944      0.00000

 k-point   6 :      -0.3750    0.3750    0.1250
  band No.  band energies     occupation 
      1      -5.1200      2.00000
      2      -4.2609      2.00000
      3      -2.8248      2.00000
      4      -2.4845      2.00000
      5      -0.4304      2.00000
      6       0.7864      2.00000
      7       6.4856      0.00000
      8       7.3682      0.00000
      9       8.2485      0.00000
     10       8.9688      0.00000
     11      10.4177      0.00000
     12      10.7605      0.00000
     13      11.4079      0.00000
     14      12.7919      0.00000
     15      13.9032      0.00000
     16      14.2918      0.00000

 k-point   7 :      -0.1250    0.3750    0.1250
  band No.  band energies     occupation 
      1      -5.9915      2.00000
      2      -3.8755      2.00000
      3      -2.0931      2.00000
      4      -1.5186      2.00000
      5      -0.4723      2.00000
      6       0.3391      2.00000
      7       5.9576      0.00000
      8       6.5331      0.00000
      9       7.5841      0.00000
     10       8.4369      0.00000
     11       9.6602      0.00000
     12      10.6477      0.00000
     13      11.6600      0.00000
     14      13.0843      0.00000
     15      14.0055      0.00000
     16      14.8582      0.00000

 k-point   8 :      -0.3750   -0.3750    0.1250
  band No.  band energies     occupation 
      1      -5.4497      2.00000
      2      -3.3911      2.00000
      3      -3.2197      2.00000
      4      -1.9573      2.00000
      5      -1.4166      2.00000
      6       0.8480      2.00000
      7       6.2367      0.00000
      8       7.9515      0.00000
      9       8.2162      0.00000
     10       9.3903      0.00000
     11      10.8024      0.00000
     12      10.9429      0.00000
     13      11.8019      0.00000
     14      12.9168      0.00000
     15      13.8512      0.00000
     16      14.1691      0.00000

 k-point   9 :       0.3750    0.3750    0.3750
  band No.  band energies     occupation 
      1      -6.5364      2.00000
      2      -4.5105      2.00000
      3      -0.5145      2.00000
      4      -0.5144      2.00000
      5       0.0778      2.00000
      6       0.0779      2.00000
      7       5.4313      0.00000
      8       6.4598      0.00000
      9       8.1440      0.00000
     10       8.1440      0.00000
     11       9.1665      0.00000
     12      10.3368      0.00000
     13      10.3368      0.00000
     14      12.8323      0.00000
     15      13.4036      0.00000
     16      13.5463      0.00000

 k-point  10 :      -0.3750    0.3750    0.3750
  band No.  band energies     occupation 
      1      -5.4466      2.00000
      2      -4.8838      2.00000
      3      -2.4631      2.00000
      4      -1.3098      2.00000
      5      -0.0665      2.00000
      6       0.6969      2.00000
      7       6.3906      0.00000
      8       6.9444      0.00000
      9       8.0173      0.00000
     10       8.8742      0.00000
     11       9.4974      0.00000
     12      11.6813      0.00000
     13      12.0223      0.00000
     14      12.2158      0.00000
     15      12.4352      0.00000
     16      14.5137      0.00000


--------------------------------------------------------------------------------------------------------


 soft charge-density along one line, spin component           1
         0         1         2         3         4         5         6         7         8         9
 total charge-density along one line
 
 pseudopotential strength for first ion, spin component:           1
 -2.493   0.001   0.000   0.000   0.000
  0.001   0.007   0.000   0.000   0.000
  0.000   0.000  -1.425   0.000   0.000
  0.000   0.000   0.000  -1.425   0.000
  0.000   0.000   0.000   0.000  -1.425
 total augmentation occupancy for first ion, spin component:           1
  1.551  -0.673   0.015   0.001  -0.024
 -0.673   0.320  -0.007   0.000   0.011
  0.015  -0.007   0.001   0.000   0.000
  0.001   0.000   0.000   0.001   0.000
 -0.024   0.011   0.000   0.000   0.001


------------------------ aborting loop because EDIFF is reached ----------------------------------------




--------------------------------------------------------------------------------------------------------


    CHARGE:  VPU time    0.05: CPU time    0.05
    FORLOC:  VPU time    0.01: CPU time    0.01
    FORNL :  VPU time    0.48: CPU time    0.48
    STRESS:  VPU time    1.34: CPU time    1.34
    FORCOR:  VPU time    0.11: CPU time    0.11
    FORHAR:  VPU time    0.04: CPU time    0.04
    MIXING:  VPU time    0.00: CPU time    0.00


--------------------------------------------------------------------------------------------------------



  FREE ENERGIE OF THE ION-ELECTRON SYSTEM (eV)
  ---------------------------------------------------
  free  energy   TOTEN  =       -27.761148 eV

  energy  without entropy=      -27.761148  energy(sigma->0) =      -27.761148
 

  FORCE on cell =-STRESS in cart. coord.  units (eV/reduce length):
  Direction    X        Y        Z        XY       YZ       ZX
  --------------------------------------------------------------------------------------
  Alpha Z      2.20      2.20      2.20
  Ewald      -64.14    -64.14    -62.37      0.00      0.00      0.00
  Hartree      7.51      7.51      8.59      0.00      0.00      0.00
  E(xc)      -35.60    -35.60    -35.57      0.00      0.00      0.00
  Local      -16.37    -16.37    -19.44      0.00      0.00      0.00
  n-local     13.73     14.64     14.14      0.34      0.17     -0.37
  augment     -1.29     -1.29     -1.29      0.00      0.00      0.00
  Kinetic     91.49     95.49     93.74     -0.61     -3.62     -1.33
  -------------------------------------------------------------------------------------
  Total       -0.01     -0.01      0.00      0.00      0.00      0.00
  in kB       -0.12     -0.12     -0.04      0.00      0.00      0.00
  external pressure =       -0.10 kB  Pullay stress =        0.00 kB


 VOLUME and BASIS-vectors are now :
 -----------------------------------------------------------------------------
  energy-cutoff  :      650.00
  volume of cell :       67.03
      direct lattice vectors                 reciprocal lattice vectors
     2.560305945  0.000000000  3.935951168     0.260385548  0.000000000  0.084689398
    -1.280152973  2.217289990  3.935951168    -0.130192774  0.225500499  0.084689398
    -1.280152973 -2.217289990  3.935951168    -0.130192774 -0.225500499  0.084689398

  length of vectors
     4.695410326  4.695410326  4.695410326     0.273811847  0.273811847  0.273811847


 FORCES acting on ions
    electron-ion (+dipol)            ewald-force                    non-local-force                 convergence-correction
 -----------------------------------------------------------------------------------------------
   -.502E+01 0.290E+01 0.315E-03   0.593E+01 -.342E+01 -.417E-04   -.914E+00 0.527E+00 0.434E-17   -.157E-06 0.906E-07 -.384E-09
   -.120E-03 -.579E+01 0.240E-03   -.170E-03 0.685E+01 0.135E-03   0.000E+00 -.105E+01 0.000E+00   0.112E-07 -.354E-06 -.739E-07
   0.502E+01 0.290E+01 0.247E-03   -.593E+01 -.342E+01 0.110E-03   0.914E+00 0.527E+00 0.000E+00   0.312E-06 0.167E-06 0.731E-07
   0.502E+01 -.290E+01 -.110E-03   -.593E+01 0.342E+01 0.764E-04   0.914E+00 -.527E+00 0.260E-17   0.157E-06 -.906E-07 0.374E-09
   0.150E-03 0.579E+01 -.348E-04   0.387E-04 -.685E+01 -.999E-04   0.000E+00 0.105E+01 0.000E+00   -.112E-07 0.354E-06 0.738E-07
   -.502E+01 -.290E+01 -.421E-04   0.593E+01 0.342E+01 -.751E-04   -.914E+00 -.527E+00 0.000E+00   -.312E-06 -.167E-06 -.731E-07
   -.133E-10 0.197E-11 0.439E-06   0.118E-07 -.335E-09 0.530E-05   -.635E-21 0.000E+00 0.000E+00   0.626E-15 0.141E-14 -.166E-09
   0.128E-07 -.566E-11 0.847E-04   -.258E-08 0.107E-08 -.109E-03   -.106E-20 0.000E+00 0.424E-21   -.377E-12 -.482E-12 0.156E-09
 -----------------------------------------------------------------------------------------------
   -.163E-06 -.659E-12 0.701E-03   0.216E-15 0.353E-14 -.420E-14   -.111E-15 -.222E-15 0.694E-17   -.972E-13 -.654E-13 -.370E-10
 
 
 POSITION                                       TOTAL-FORCE (eV/Angst)
 -----------------------------------------------------------------------------------
      1.15481      0.81147      6.88791        -0.000099      0.000057      0.000000
     -1.28015      0.59436      6.88791         0.000000     -0.000114      0.000000
      0.12535     -1.40582      6.88791         0.000099      0.000057      0.000000
     -1.15481     -0.81147      4.91994         0.000099     -0.000057      0.000000
      1.28015     -0.59436      4.91994         0.000000      0.000114      0.000000
     -0.12535      1.40582      4.91994        -0.000099     -0.000057      0.000000
      0.00000      0.00000      0.00000         0.000000      0.000000      0.000000
      0.00000      0.00000      5.90393         0.000000      0.000000      0.000000
 -----------------------------------------------------------------------------------
    total drift:                                0.000000      0.000000      0.000701


--------------------------------------------------------------------------------------------------------


 Finite differences:
   Step               POTIM =   0.500000000000000     
   Degrees of freedom DOF   =           24
  LATTYP: Found a trigonal (rhomboedric) cell.
 ALAT       =     4.6954103261
 COS(alpha) =     0.5540071596
  
  Lattice vectors:
  
 A1 = (   2.5603059450,   0.0000000000,   3.9359511680)
 A2 = (  -1.2801529730,   2.2172899900,   3.9359511680)
 A3 = (  -1.2801529730,  -2.2172899900,   3.9359511680)
 Subroutine PRICEL returns:
 Original cell was already a primitive cell.
 

Analysis of symmetry for initial positions (statically):

 Routine SETGRP: Setting up the symmetry group for a 
 trigonal (rhombohedral) supercell.


 Subroutine GETGRP returns: Found  1 space group operations
 (whereof  1 operations were pure point group operations)
 out of a pool of 12 trial point group operations.


The static configuration has the point symmetry C_1 .

Analysis of symmetry for dynamics (positions and initial velocities):

 Subroutine DYNSYM returns: Found  1 space group operations
 (whereof  1 operations were pure point group operations)
 out of a pool of  1 trial space group operations
 (whereof  1 operations were pure point group operations)
 and found also     1 'primitive' translations


The dynamic configuration has the point symmetry C_1 .

 mean value of Nose-termostat <S>:     1.000 mean value of <T> :     0.000
 mean temperature <T/S>/<1/S>  :     0.000

    WAVPRE:  VPU time    0.02: CPU time    0.02
    FEWALD:  VPU time    0.00: CPU time    0.00
    GENKIN:  VPU time    0.04: CPU time    0.04

 real space projection operators:
  total allocation   :   1831.59 KBytes
  max/ min on nodes  :   1831.59   1831.59

    ORTHCH:  VPU time    0.15: CPU time    0.15
     LOOP+:  VPU time   22.53: CPU time   22.67


----------------------------------------- Iteration    2(   1)  ---------------------------------------


    POTLOK:  VPU time    0.12: CPU time    0.11
    SETDIJ:  VPU time    0.00: CPU time    0.01
    EDDIAG:  VPU time    0.10: CPU time    0.10
  RMM-DIIS:  VPU time    0.79: CPU time    0.79
    ORTHCH:  VPU time    0.01: CPU time    0.01
    DOS   :  VPU time    0.00: CPU time    0.00
    CHARGE:  VPU time    0.04: CPU time    0.04
    MIXING:  VPU time    0.00: CPU time    0.00
    ------------------------------------------
      LOOP:  VPU time    1.06: CPU time    1.06

 eigenvalue-minimisations  :   322
 total energy-change (2. order) :-0.2795504E+02  (-0.5366111E+01)
 number of electron   11.9999999 magnetization 
 augmentation part    -0.0286621 magnetization 

 Broyden mixing:
  rms(total) = 0.20834E+00    rms(broyden)= 0.20828E+00
  rms(prec ) = 0.52744E+00
  weight for this iteration     100.00

 Free energy of the ion-electron system (eV)
  ---------------------------------------------------
  alpha Z        PSCENC =         2.19859438
  Ewald energy   TEWEN  =      -193.02119654
  -1/2 Hartree   DENC   =       -22.10441045
  -V(xc)+E(xc)   XCENC  =       -35.36242690
  PAW double counting   =        76.67156187      -12.80207605
  entropy T*S    EENTRO =         0.00000000
  eigenvalues    EBANDS =       -25.51180977
  atomic energy  EATOM  =       181.97672381
  ---------------------------------------------------
  free energy    TOTEN  =       -27.95503964 eV

  energy without entropy =      -27.95503964  energy(sigma->0) =      -27.95503964


--------------------------------------------------------------------------------------------------------




----------------------------------------- Iteration    2(   2)  ---------------------------------------


    POTLOK:  VPU time    0.11: CPU time    0.11
    SETDIJ:  VPU time    0.01: CPU time    0.01
    EDDIAG:  VPU time    0.10: CPU time    0.09
  RMM-DIIS:  VPU time    0.79: CPU time    0.79
    ORTHCH:  VPU time    0.01: CPU time    0.01
    DOS   :  VPU time    0.00: CPU time    0.00
    CHARGE:  VPU time    0.04: CPU time    0.04
    MIXING:  VPU time    0.00: CPU time    0.00
    ------------------------------------------
      LOOP:  VPU time    1.06: CPU time    1.06

 eigenvalue-minimisations  :   320
 total energy-change (2. order) : 0.5056853E+00  (-0.2066833E+00)
 number of electron   11.9999999 magnetization 
 augmentation part    -0.0218271 magnetization 

 Broyden mixing:
  rms(total) = 0.17515E+00    rms(broyden)= 0.17513E+00
  rms(prec ) = 0.41586E+00
  weight for this iteration     100.00

 eigenvalues of (default mixing * dielectric matrix)
  average eigenvalue GAMMA=   0.6301
  0.6301

 Free energy of the ion-electron system (eV)
  ---------------------------------------------------
  alpha Z        PSCENC =         2.19859438
  Ewald energy   TEWEN  =      -193.02119654
  -1/2 Hartree   DENC   =       -21.83206907
  -V(xc)+E(xc)   XCENC  =       -35.43659611
  PAW double counting   =        76.41928441      -12.55273170
  entropy T*S    EENTRO =         0.00000000
  eigenvalues    EBANDS =       -25.20136355
  atomic energy  EATOM  =       181.97672381
  ---------------------------------------------------
  free energy    TOTEN  =       -27.44935438 eV

  energy without entropy =      -27.44935438  energy(sigma->0) =      -27.44935438


--------------------------------------------------------------------------------------------------------




----------------------------------------- Iteration    2(   3)  ---------------------------------------


    POTLOK:  VPU time    0.11: CPU time    0.11
    SETDIJ:  VPU time    0.01: CPU time    0.01
    EDDIAG:  VPU time    0.09: CPU time    0.09
  RMM-DIIS:  VPU time    0.79: CPU time    0.78
    ORTHCH:  VPU time    0.01: CPU time    0.01
    DOS   :  VPU time    0.00: CPU time    0.00
    CHARGE:  VPU time    0.04: CPU time    0.04
    MIXING:  VPU time    0.00: CPU time    0.00
    ------------------------------------------
      LOOP:  VPU time    1.05: CPU time    1.06

 eigenvalue-minimisations  :   320
 total energy-change (2. order) : 0.4203103E-01  (-0.2841663E-02)
 number of electron   11.9999999 magnetization 
 augmentation part    -0.0219788 magnetization 

 Broyden mixing:
  rms(total) = 0.13043E+00    rms(broyden)= 0.13042E+00
  rms(prec ) = 0.30252E+00
  weight for this iteration     100.00

 eigenvalues of (default mixing * dielectric matrix)
  average eigenvalue GAMMA=   1.6998
  1.0780  2.3217

 Free energy of the ion-electron system (eV)
  ---------------------------------------------------
  alpha Z        PSCENC =         2.19859438
  Ewald energy   TEWEN  =      -193.02119654
  -1/2 Hartree   DENC   =       -21.94055426
  -V(xc)+E(xc)   XCENC  =       -35.41473594
  PAW double counting   =        76.33498114      -12.46303886
  entropy T*S    EENTRO =         0.00000000
  eigenvalues    EBANDS =       -25.07809708
  atomic energy  EATOM  =       181.97672381
  ---------------------------------------------------
  free energy    TOTEN  =       -27.40732334 eV

  energy without entropy =      -27.40732334  energy(sigma->0) =      -27.40732334


--------------------------------------------------------------------------------------------------------




----------------------------------------- Iteration    2(   4)  ---------------------------------------


    POTLOK:  VPU time    0.11: CPU time    0.11
    SETDIJ:  VPU time    0.01: CPU time    0.01
    EDDIAG:  VPU time    0.09: CPU time    0.10
  RMM-DIIS:  VPU time    0.79: CPU time    0.79
    ORTHCH:  VPU time    0.01: CPU time    0.01
    DOS   :  VPU time    0.00: CPU time    0.00
    CHARGE:  VPU time    0.04: CPU time    0.04
    MIXING:  VPU time    0.00: CPU time    0.00
    ------------------------------------------
      LOOP:  VPU time    1.06: CPU time    1.06

 eigenvalue-minimisations  :   320
 total energy-change (2. order) : 0.3374976E-01  (-0.6459932E-02)
 number of electron   11.9999999 magnetization 
 augmentation part    -0.0233389 magnetization 

 Broyden mixing:
  rms(total) = 0.26264E-01    rms(broyden)= 0.26262E-01
  rms(prec ) = 0.68664E-01
  weight for this iteration     100.00

 eigenvalues of (default mixing * dielectric matrix)
  average eigenvalue GAMMA=   1.6029
  2.3517  1.2284  1.2284

 Free energy of the ion-electron system (eV)
  ---------------------------------------------------
  alpha Z        PSCENC =         2.19859438
  Ewald energy   TEWEN  =      -193.02119654
  -1/2 Hartree   DENC   =       -22.35554746
  -V(xc)+E(xc)   XCENC  =       -35.33588777
  PAW double counting   =        76.19232060      -12.31001668
  entropy T*S    EENTRO =         0.00000000
[...]
 
 
   1 f  =   61.880092 THz   388.804082 2PiTHz 2064.097613 cm-1   255.915580 meV
             X         Y         Z           dx          dy          dz
      1.154810  0.811470  6.887910     0.142328    0.284744    0.218505  
     -1.280150  0.594360  6.887910    -0.325017   -0.005914    0.256184  
      0.125350 -1.405820  6.887910     0.147813   -0.308571    0.250139  
     -1.154810 -0.811470  4.919940    -0.142322   -0.284738   -0.218502  
      1.280150 -0.594360  4.919940     0.325007    0.005917   -0.256181  
     -0.125350  1.405820  4.919940    -0.147808    0.308554   -0.250128  
      0.000000  0.000000  0.000000     0.000000    0.000000    0.000000  
      0.000000  0.000000  5.903930     0.000000    0.000000    0.000000  
 
   2 f  =   56.226671 THz   353.282596 2PiTHz 1875.519821 cm-1   232.534905 meV
             X         Y         Z           dx          dy          dz
      1.154810  0.811470  6.887910     0.005057   -0.193034   -0.074407  
     -1.280150  0.594360  6.887910    -0.215700   -0.046660    0.255430  
      0.125350 -1.405820  6.887910    -0.155522    0.437794   -0.342377  
     -1.154810 -0.811470  4.919940     0.005053   -0.193045   -0.074415  
      1.280150 -0.594360  4.919940    -0.215675   -0.046662    0.255412  
     -0.125350  1.405820  4.919940    -0.155521    0.437777   -0.342368  
      0.000000  0.000000  0.000000     0.015694    0.002977    0.005811  
      0.000000  0.000000  5.903930     0.011571   -0.016988    0.006533  
 
   3 f  =   54.767725 THz   344.115763 2PiTHz 1826.854599 cm-1   226.501184 meV
             X         Y         Z           dx          dy          dz
      1.154810  0.811470  6.887910    -0.014617   -0.071252   -0.153538  
     -1.280150  0.594360  6.887910    -0.472108    0.045682    0.310267  
      0.125350 -1.405820  6.887910     0.204950   -0.252144    0.182790  
     -1.154810 -0.811470  4.919940    -0.014606   -0.071234   -0.153523  
      1.280150 -0.594360  4.919940    -0.472108    0.045678    0.310270  
     -0.125350  1.405820  4.919940     0.204953   -0.252145    0.182793  
      0.000000  0.000000  0.000000     0.007501    0.014608   -0.011484  
      0.000000  0.000000  5.903930     0.013506    0.006021   -0.013717  
 
   4 f  =   53.941679 THz   338.925562 2PiTHz 1799.300666 cm-1   223.084931 meV
             X         Y         Z           dx          dy          dz
      1.154810  0.811470  6.887910     0.271317    0.462172    0.366182  
     -1.280150  0.594360  6.887910    -0.203433   -0.070658    0.094147  
      0.125350 -1.405820  6.887910    -0.033960    0.011048   -0.099329  
     -1.154810 -0.811470  4.919940     0.271307    0.462169    0.366177  
      1.280150 -0.594360  4.919940    -0.203434   -0.070659    0.094148  
     -0.125350  1.405820  4.919940    -0.033954    0.011033   -0.099318  
      0.000000  0.000000  0.000000     0.005498   -0.018226   -0.014721  
      0.000000  0.000000  5.903930    -0.007847   -0.011834   -0.011507  
 
   5 f  =   50.142077 THz   315.051963 2PiTHz 1672.559609 cm-1   207.371037 meV
             X         Y         Z           dx          dy          dz
      1.154810  0.811470  6.887910     0.033237    0.099618    0.055242  
     -1.280150  0.594360  6.887910    -0.357462   -0.002990    0.260996  
      0.125350 -1.405820  6.887910    -0.191316    0.390668   -0.317433  
     -1.154810 -0.811470  4.919940    -0.033243   -0.099618   -0.055247  
      1.280150 -0.594360  4.919940     0.357475    0.002998   -0.261011  
     -0.125350  1.405820  4.919940     0.191330   -0.390687    0.317454  
      0.000000  0.000000  0.000000    -0.000001    0.000000    0.000000  
      0.000000  0.000000  5.903930     0.000000    0.000000    0.000000  
 
   6 f  =   48.402229 THz   304.120173 2PiTHz 1614.524519 cm-1   200.175600 meV
             X         Y         Z           dx          dy          dz
      1.154810  0.811470  6.887910     0.222225    0.419906    0.331468  
     -1.280150  0.594360  6.887910     0.304693   -0.004128   -0.199627  
      0.125350 -1.405820  6.887910    -0.094284    0.128195   -0.079878  
     -1.154810 -0.811470  4.919940    -0.222222   -0.419920   -0.331479  
      1.280150 -0.594360  4.919940    -0.304700    0.004129    0.199633  
     -0.125350  1.405820  4.919940     0.094293   -0.128201    0.079885  
      0.000000  0.000000  0.000000     0.000000    0.000001    0.000000  
      0.000000  0.000000  5.903930     0.000000    0.000000    0.000000  
 
   7 f  =   30.298370 THz   190.370275 2PiTHz 1010.644814 cm-1   125.304032 meV
             X         Y         Z           dx          dy          dz
      1.154810  0.811470  6.887910    -0.273488    0.210550   -0.135988  
     -1.280150  0.594360  6.887910     0.081292   -0.231408    0.110545  
      0.125350 -1.405820  6.887910    -0.481410   -0.241203    0.008592  
     -1.154810 -0.811470  4.919940     0.273493   -0.210552    0.135991  
      1.280150 -0.594360  4.919940    -0.081293    0.231397   -0.110542  
     -0.125350  1.405820  4.919940     0.481399    0.241200   -0.008597  
      0.000000  0.000000  0.000000     0.000000    0.000000    0.000000  
      0.000000  0.000000  5.903930     0.000000    0.000001    0.000000  
 
   8 f  =   29.107824 THz   182.889849 2PiTHz  970.932452 cm-1   120.380325 meV
             X         Y         Z           dx          dy          dz
      1.154810  0.811470  6.887910    -0.445651    0.205447    0.054533  
     -1.280150  0.594360  6.887910     0.019354    0.460529    0.004543  
      0.125350 -1.405820  6.887910     0.136552   -0.057125   -0.147708  
     -1.154810 -0.811470  4.919940     0.445655   -0.205446   -0.054530  
      1.280150 -0.594360  4.919940    -0.019356   -0.460529   -0.004547  
     -0.125350  1.405820  4.919940    -0.136565    0.057119    0.147709  
      0.000000  0.000000  0.000000     0.000000    0.000000    0.000000  
      0.000000  0.000000  5.903930     0.000000    0.000000    0.000000  
 
   9 f  =   27.546296 THz   173.078485 2PiTHz  918.845515 cm-1   113.922366 meV
             X         Y         Z           dx          dy          dz
      1.154810  0.811470  6.887910     0.331827   -0.174338   -0.010801  
     -1.280150  0.594360  6.887910    -0.010001    0.247281    0.018101  
      0.125350 -1.405820  6.887910    -0.452597   -0.220970    0.013535  
     -1.154810 -0.811470  4.919940     0.331813   -0.174331   -0.010794  
      1.280150 -0.594360  4.919940    -0.009997    0.247286    0.018108  
     -0.125350  1.405820  4.919940    -0.452597   -0.220973    0.013541  
      0.000000  0.000000  0.000000     0.004404    0.002018    0.039143  
      0.000000  0.000000  5.903930     0.004790    0.007276   -0.040330  
 
  10 f  =   25.738865 THz   161.722056 2PiTHz  858.556083 cm-1   106.447426 meV
             X         Y         Z           dx          dy          dz
      1.154810  0.811470  6.887910     0.366463   -0.169935    0.066219  
     -1.280150  0.594360  6.887910     0.034536    0.260911   -0.087199  
      0.125350 -1.405820  6.887910     0.399934    0.151337   -0.019592  
     -1.154810 -0.811470  4.919940     0.366475   -0.169937    0.066227  
      1.280150 -0.594360  4.919940     0.034536    0.260912   -0.087197  
     -0.125350  1.405820  4.919940     0.399934    0.151346   -0.019593  
      0.000000  0.000000  0.000000    -0.039430    0.030590    0.009672  
      0.000000  0.000000  5.903930    -0.018036   -0.048973   -0.007323  
 
  11 f  =   24.424070 THz   153.460956 2PiTHz  814.699244 cm-1   101.009869 meV
             X         Y         Z           dx          dy          dz
      1.154810  0.811470  6.887910     0.293212   -0.165837   -0.054198  
     -1.280150  0.594360  6.887910     0.034367   -0.550199   -0.020254  
      0.125350 -1.405820  6.887910     0.014411   -0.059460    0.058016  
     -1.154810 -0.811470  4.919940     0.293211   -0.165831   -0.054197  
      1.280150 -0.594360  4.919940     0.034372   -0.550198   -0.020258  
     -0.125350  1.405820  4.919940     0.014400   -0.059467    0.058019  
      0.000000  0.000000  0.000000     0.024864    0.046813    0.002725  
      0.000000  0.000000  5.903930    -0.049557    0.008643   -0.001349  
 
  12 f  =   21.353482 THz   134.167883 2PiTHz  712.275461 cm-1    88.310934 meV
             X         Y         Z           dx          dy          dz
      1.154810  0.811470  6.887910     0.292667   -0.188335    0.028704  
     -1.280150  0.594360  6.887910     0.008140    0.452367    0.041180  
      0.125350 -1.405820  6.887910    -0.373701   -0.178869    0.002060  
     -1.154810 -0.811470  4.919940    -0.292666    0.188330   -0.028704  
      1.280150 -0.594360  4.919940    -0.008138   -0.452372   -0.041183  
     -0.125350  1.405820  4.919940     0.373704    0.178874   -0.002062  
      0.000000  0.000000  0.000000     0.000000    0.000000    0.000000  
      0.000000  0.000000  5.903930     0.000000    0.000000    0.000000  
 
  13 f  =   20.016810 THz   125.769324 2PiTHz  667.688877 cm-1    82.782900 meV
             X         Y         Z           dx          dy          dz
      1.154810  0.811470  6.887910     0.215669    0.200965   -0.360735  
     -1.280150  0.594360  6.887910    -0.148152   -0.012135   -0.226578  
      0.125350 -1.405820  6.887910     0.113166   -0.246856   -0.368490  
     -1.154810 -0.811470  4.919940    -0.215679   -0.200964    0.360738  
      1.280150 -0.594360  4.919940     0.148153    0.012129    0.226581  
     -0.125350  1.405820  4.919940    -0.113162    0.246863    0.368494  
      0.000000  0.000000  0.000000     0.000000    0.000000    0.000000  
      0.000000  0.000000  5.903930     0.000000    0.000000    0.000000  
 
  14 f  =   12.640711 THz    79.423928 2PiTHz  421.648714 cm-1    52.277797 meV
             X         Y         Z           dx          dy          dz
      1.154810  0.811470  6.887910    -0.190679   -0.186081    0.289099  
     -1.280150  0.594360  6.887910    -0.023611    0.055322   -0.026881  
      0.125350 -1.405820  6.887910     0.138737   -0.208692   -0.300710  
     -1.154810 -0.811470  4.919940    -0.190680   -0.186083    0.289102  
      1.280150 -0.594360  4.919940    -0.023609    0.055320   -0.026881  
     -0.125350  1.405820  4.919940     0.138737   -0.208699   -0.300716  
      0.000000  0.000000  0.000000     0.076616   -0.003909    0.035695  
      0.000000  0.000000  5.903930    -0.070963    0.015175   -0.038727  
 
  15 f  =    8.511945 THz    53.482129 2PiTHz  283.927921 cm-1    35.202588 meV
             X         Y         Z           dx          dy          dz
      1.154810  0.811470  6.887910     0.007497    0.057194   -0.080445  
     -1.280150  0.594360  6.887910     0.016889    0.159231    0.008268  
      0.125350 -1.405820  6.887910    -0.114808   -0.077769   -0.015108  
     -1.154810 -0.811470  4.919940     0.007497    0.057195   -0.080445  
      1.280150 -0.594360  4.919940     0.016890    0.159230    0.008268  
     -0.125350  1.405820  4.919940    -0.114808   -0.077765   -0.015105  
      0.000000  0.000000  0.000000     0.068451    0.057908   -0.083976  
      0.000000  0.000000  5.903930    -0.062023   -0.069812    0.095792  
 
  16 f  =    7.584645 THz    47.655731 2PiTHz  252.996520 cm-1    31.367582 meV
             X         Y         Z           dx          dy          dz
      1.154810  0.811470  6.887910    -0.148644    0.127556   -0.043140  
     -1.280150  0.594360  6.887910     0.005375   -0.085727   -0.032492  
      0.125350 -1.405820  6.887910    -0.038970   -0.127353   -0.143301  
     -1.154810 -0.811470  4.919940    -0.148643    0.127552   -0.043137  
      1.280150 -0.594360  4.919940     0.005374   -0.085726   -0.032491  
     -0.125350  1.405820  4.919940    -0.038971   -0.127355   -0.143304  
      0.000000  0.000000  0.000000    -0.031974    0.105564    0.052101  
      0.000000  0.000000  5.903930     0.046199   -0.104749   -0.051289  
 
  17 f  =    3.262402 THz    20.498279 2PiTHz  108.822028 cm-1    13.492217 meV
             X         Y         Z           dx          dy          dz
      1.154810  0.811470  6.887910     0.016135   -0.211099    0.077686  
     -1.280150  0.594360  6.887910    -0.044928   -0.125697   -0.101817  
      0.125350 -1.405820  6.887910    -0.016181   -0.220092   -0.213971  
     -1.154810 -0.811470  4.919940     0.016130   -0.211108    0.077700  
      1.280150 -0.594360  4.919940    -0.044925   -0.125702   -0.101813  
     -0.125350  1.405820  4.919940    -0.016181   -0.220101   -0.213982  
      0.000000  0.000000  0.000000    -0.060266   -0.070061   -0.102834  
      0.000000  0.000000  5.903930     0.046531   -0.054018   -0.000343  
 
  18 f  =    1.564987 THz     9.833105 2PiTHz   52.202352 cm-1     6.472269 meV
             X         Y         Z           dx          dy          dz
      1.154810  0.811470  6.887910    -0.115328   -0.095627    0.170072  
     -1.280150  0.594360  6.887910    -0.131032   -0.057103    0.033792  
      0.125350 -1.405820  6.887910    -0.108450   -0.012690    0.148019  
     -1.154810 -0.811470  4.919940    -0.115329   -0.095627    0.170072  
      1.280150 -0.594360  4.919940    -0.131035   -0.057102    0.033789  
     -0.125350  1.405820  4.919940    -0.108451   -0.012690    0.148019  
      0.000000  0.000000  0.000000    -0.084751   -0.035431    0.078403  
      0.000000  0.000000  5.903930    -0.072846   -0.052743    0.080459  
 
  19 f  =    0.426128 THz     2.677439 2PiTHz   14.214090 cm-1     1.762323 meV
             X         Y         Z           dx          dy          dz
      1.154810  0.811470  6.887910    -0.090696    0.058191   -0.077739  
     -1.280150  0.594360  6.887910    -0.112102    0.058648   -0.088309  
      0.125350 -1.405820  6.887910    -0.095105    0.061657   -0.063093  
     -1.154810 -0.811470  4.919940    -0.090697    0.058192   -0.077740  
      1.280150 -0.594360  4.919940    -0.112103    0.058649   -0.088310  
     -0.125350  1.405820  4.919940    -0.095106    0.061658   -0.063092  
      0.000000  0.000000  0.000000    -0.091003    0.051821   -0.064545  
      0.000000  0.000000  5.903930    -0.101231    0.054407   -0.066335  
 
  20 f/i=    3.388560 THz    21.290949 2PiTHz  113.030183 cm-1    14.013962 meV
             X         Y         Z           dx          dy          dz
      1.154810  0.811470  6.887910    -0.003187    0.088661   -0.237061  
     -1.280150  0.594360  6.887910     0.017740   -0.020821   -0.011275  
      0.125350 -1.405820  6.887910     0.000646    0.083049    0.115405  
     -1.154810 -0.811470  4.919940    -0.003182    0.088674   -0.237080  
      1.280150 -0.594360  4.919940     0.017735   -0.020814   -0.011282  
     -0.125350  1.405820  4.919940     0.000645    0.083064    0.115423  
      0.000000  0.000000  0.000000     0.040997   -0.093285    0.003440  
      0.000000  0.000000  5.903930    -0.064135   -0.091927   -0.088262  
 
  21 f/i=    7.012035 THz    44.057915 2PiTHz  233.896302 cm-1    28.999456 meV
             X         Y         Z           dx          dy          dz
      1.154810  0.811470  6.887910    -0.101281   -0.163375    0.272669  
     -1.280150  0.594360  6.887910    -0.238087   -0.010241   -0.298171  
      0.125350 -1.405820  6.887910    -0.108873    0.206421    0.317153  
     -1.154810 -0.811470  4.919940    -0.101286   -0.163143    0.272367  
      1.280150 -0.594360  4.919940    -0.238306   -0.010080   -0.298463  
     -0.125350  1.405820  4.919940    -0.108998    0.206705    0.317599  
      0.000000  0.000000  0.000000     0.044066    0.029937   -0.031406  
      0.000000  0.000000  5.903930     0.031815   -0.021513   -0.034685  
 
  22 f/i=    7.149183 THz    44.919641 2PiTHz  238.471068 cm-1    29.566655 meV
             X         Y         Z           dx          dy          dz
      1.154810  0.811470  6.887910    -0.000142   -0.215582    0.284858  
     -1.280150  0.594360  6.887910     0.188201   -0.145734    0.252885  
      0.125350 -1.405820  6.887910     0.110174   -0.264266   -0.412354  
     -1.154810 -0.811470  4.919940     0.000251    0.215748   -0.285140  
      1.280150 -0.594360  4.919940    -0.187943    0.145744   -0.252562  
     -0.125350  1.405820  4.919940    -0.110052    0.264028    0.411989  
      0.000000  0.000000  0.000000    -0.000025   -0.000015    0.000016  
      0.000000  0.000000  5.903930    -0.000015    0.000013    0.000020  
 
  23 f/i=   11.945203 THz    75.053924 2PiTHz  398.449071 cm-1    49.401406 meV
             X         Y         Z           dx          dy          dz
      1.154810  0.811470  6.887910    -0.153945   -0.154238    0.325278  
     -1.280150  0.594360  6.887910    -0.330503   -0.090996   -0.443814  
      0.125350 -1.405820  6.887910    -0.132965   -0.107561   -0.051954  
     -1.154810 -0.811470  4.919940     0.153838    0.154078   -0.324902  
      1.280150 -0.594360  4.919940     0.330931    0.090991    0.444446  
     -0.125350  1.405820  4.919940     0.132923    0.107620    0.052235  
      0.000000  0.000000  0.000000    -0.000011    0.000015   -0.000033  
      0.000000  0.000000  5.903930    -0.000002   -0.000015   -0.000030  
 
  24 f/i=   12.050010 THz    75.712447 2PiTHz  401.945061 cm-1    49.834854 meV
             X         Y         Z           dx          dy          dz
      1.154810  0.811470  6.887910     0.072061    0.107170   -0.256641  
     -1.280150  0.594360  6.887910    -0.311769    0.000029   -0.459676  
      0.125350 -1.405820  6.887910     0.027705   -0.039879   -0.196643  
     -1.154810 -0.811470  4.919940     0.072274    0.107384   -0.257092  
      1.280150 -0.594360  4.919940    -0.311304    0.000159   -0.459051  
     -0.125350  1.405820  4.919940     0.027892   -0.039726   -0.196569  
      0.000000  0.000000  0.000000     0.015486   -0.020392    0.046038  
      0.000000  0.000000  5.903930     0.004217    0.020524    0.042927  
 
 Finite differences POTIM=  0.500000000000000     
  LATTYP: Found a trigonal (rhomboedric) cell.
 ALAT       =     4.6954103261
 COS(alpha) =     0.5540071596
  
  Lattice vectors:
  
 A1 = (   2.5603059450,   0.0000000000,   3.9359511680)
 A2 = (  -1.2801529730,   2.2172899900,   3.9359511680)
 A3 = (  -1.2801529730,  -2.2172899900,   3.9359511680)
 Subroutine PRICEL returns:
 Original cell was already a primitive cell.
 

Analysis of symmetry for initial positions (statically):

 Routine SETGRP: Setting up the symmetry group for a 
 trigonal (rhombohedral) supercell.


 Subroutine GETGRP returns: Found  3 space group operations
 (whereof  3 operations were pure point group operations)
 out of a pool of 12 trial point group operations.


The static configuration has the point symmetry C_3 .

Analysis of symmetry for dynamics (positions and initial velocities):

 Subroutine DYNSYM returns: Found  3 space group operations
 (whereof  3 operations were pure point group operations)
 out of a pool of  3 trial space group operations
 (whereof  3 operations were pure point group operations)
 and found also     1 'primitive' translations


The dynamic configuration has the point symmetry C_3 .

 mean value of Nose-termostat <S>:     1.000 mean value of <T> :     0.000
 mean temperature <T/S>/<1/S>  :     0.000

 writing wavefunctions
     LOOP+:  VPU time   15.54: CPU time   15.73
  
  
 General timing and accounting informations for this job:
 ========================================================
  
                  Total CPU time used (sec):      782.013
                            User time (sec):      698.520
                          System time (sec):       83.493
                         Elapsed time (sec):      787.108
  
                   Maximum memory used (kb):           0.
                   Average memory used (kb):           0.
  
                          Minor page faults:     12643514
                          Major page faults:           14
                 Voluntary context switches:        12398
