 vasp.4.6.35 3Apr08 complex 
 executed on             LinuxIFC date 2010.07.19  17:34:47
 running on    8 nodes
 distr:  one band on    1 nodes,    8 groups


--------------------------------------------------------------------------------------------------------


 INCAR:
 POTCAR:   PAW_PBE H 15Jun2001                    
 POTCAR:   PAW_PBE Al 04Jan2001                   
 POTCAR:   PAW_PBE H 15Jun2001                    
   VRHFIN =H: ultrasoft test                                                    
   LEXCH  = PE                                                                  
   EATOM  =    12.4884 eV,     .9179 Ry                                         
                                                                                
   TITEL  = PAW_PBE H 15Jun2001                                                 
   LULTRA =        F    use ultrasoft PP ?                                      
   IUNSCR =        0    unscreen: 0-lin 1-nonlin 2-no                           
   RPACOR =     .000    partial core radius                                     
   POMASS =    1.000; ZVAL   =    1.000    mass and valenz                      
   RCORE  =    1.100    outmost cutoff radius                                   
   RWIGS  =     .700; RWIGS  =     .370    wigner-seitz radius (au A)           
   ENMAX  =  250.000; ENMIN  =  200.000 eV                                      
   RCLOC  =     .701    cutoff for local pot                                    
   LCOR   =        T    correct aug charges                                     
   LPAW   =        T    paw PP                                                  
   EAUG   =  400.000                                                            
   RMAX   =    2.174    core radius for proj-oper                               
   RAUG   =    1.200    factor for augmentation sphere                          
   RDEP   =    1.112    radius for radial grids                                 
   QCUT   =   -5.749; QGAM   =   11.498    optimization parameters              
                                                                                
   Description                                                                  
     l     E      TYP  RCUT    TYP  RCUT                                        
     0   .000     23  1.100                                                     
     0   .500     23  1.100                                                     
     1  -.300     23  1.100                                                     
  local pseudopotential read in
  atomic valenz-charges read in
  non local Contribution for L=           0  read in
    real space projection operators read in
  non local Contribution for L=           0  read in
    real space projection operators read in
  non local Contribution for L=           1  read in
    real space projection operators read in
    PAW grid and wavefunctions read in
 
   number of l-projection  operators is LMAX  =           3
   number of lm-projection operators is LMMAX =           5
 
 POTCAR:   PAW_PBE Al 04Jan2001                   
   VRHFIN =Al: s2p1                                                             
   LEXCH  = PE                                                                  
   EATOM  =    53.5387 eV,    3.9350 Ry                                         
                                                                                
   TITEL  = PAW_PBE Al 04Jan2001                                                
   LULTRA =        F    use ultrasoft PP ?                                      
   IUNSCR =        1    unscreen: 0-lin 1-nonlin 2-no                           
   RPACOR =    1.500    partial core radius                                     
   POMASS =   26.982; ZVAL   =    3.000    mass and valenz                      
   RCORE  =    1.900    outmost cutoff radius                                   
   RWIGS  =    2.650; RWIGS  =    1.402    wigner-seitz radius (au A)           
   ENMAX  =  240.300; ENMIN  =  180.225 eV                                      
   ICORE  =        2    local potential                                         
   LCOR   =        T    correct aug charges                                     
   LPAW   =        T    paw PP                                                  
   EAUG   =  291.052                                                            
   DEXC   =    -.041                                                            
   RMAX   =    2.974    core radius for proj-oper                               
   RAUG   =    1.300    factor for augmentation sphere                          
   RDEP   =    1.966    radius for radial grids                                 
   QCUT   =   -4.203; QGAM   =    8.405    optimization parameters              
                                                                                
   Description                                                                  
     l     E      TYP  RCUT    TYP  RCUT                                        
     0   .000     23  1.900                                                     
     0   .000     23  1.900                                                     
     1   .000     23  1.900                                                     
     1  1.000     23  1.900                                                     
     2   .000      7  1.900                                                     
  local pseudopotential read in
  partial core-charges read in
  atomic valenz-charges read in
  non local Contribution for L=           0  read in
    real space projection operators read in
  non local Contribution for L=           0  read in
    real space projection operators read in
  non local Contribution for L=           1  read in
    real space projection operators read in
  non local Contribution for L=           1  read in
    real space projection operators read in
    PAW grid and wavefunctions read in
 
   number of l-projection  operators is LMAX  =           4
   number of lm-projection operators is LMMAX =           8
 

 ----------------------------------------------------------------------------- 
|                                                                             |
|  ADVICE TO THIS USER RUNNING 'VASP/VAMP'   (HEAR YOUR MASTER'S VOICE ...):  |
|                                                                             |
|      You have a (more or less) 'small supercell' and for smaller cells      |
|      it is recommended  to use the reciprocal-space projection scheme!      |
|      The real space optimization is not  efficient for small cells and it   |
|      is also less accurate ...                                              |
|      Therefore set LREAL=.FALSE. in the  INCAR file                         |
|                                                                             |
 ----------------------------------------------------------------------------- 

 Optimization of the real space projectors (new method)

 maximal supplied QI-value         = 34.20
 optimisation between [QCUT,QGAM] = [ 13.34, 27.02] = [ 49.83,204.46] Ry 
 Optimized for a Real-space Cutoff    0.98 Angstroem

   l    n(q)    QCUT    max X(q) W(low)/X(q) W(high)/X(q)  e(spline) 
   0      8    13.340     4.436    0.25E-04    0.31E-04    0.21E-07
   0      8    13.340    16.131    0.17E-03    0.45E-04    0.18E-06
   1      7    13.340     4.654    0.16E-03    0.30E-03    0.13E-06
 Optimization of the real space projectors (new method)

 maximal supplied QI-value         = 19.84
 optimisation between [QCUT,QGAM] = [ 13.49, 26.99] = [ 50.98,203.92] Ry 
 Optimized for a Real-space Cutoff    1.07 Angstroem

   l    n(q)    QCUT    max X(q) W(low)/X(q) W(high)/X(q)  e(spline) 
   0      9    13.493    13.410    0.20E-04    0.44E-05    0.10E-07
   0      9    13.493   140.052    0.19E-03    0.97E-04    0.13E-06
   1      8    13.493     9.624    0.22E-04    0.43E-04    0.15E-07
   1      8    13.493    53.353    0.89E-04    0.12E-03    0.12E-06
 PAW_PBE H 15Jun2001                    :
 energy of atom  1       EATOM=  -12.4884
 kinetic energy error for atom=    0.0002 (will be added to EATOM!!)
 PAW_PBE Al 04Jan2001                   :
 energy of atom  2       EATOM=  -53.5387
 kinetic energy error for atom=    0.0001 (will be added to EATOM!!)
 
 EXHCAR: internal setup
 exchange correlation table for  LEXCH =        8
   RHO(1)=    0.500       N(1)  =     2000
   RHO(2)=  100.500       N(2)  =     4000
 
 POSCAR:  H 6   Al 2                             
  positions in cartesian coordinates
  No initial velocities read in
 


--------------------------------------------------------------------------------------------------------


 ion  position               nearest neighbor table
   1  0.878  0.622  0.250-   7 1.72   8 1.72
   2  0.250  0.878  0.622-   8 1.72   7 1.72
   3  0.622  0.250  0.878-   7 1.72   8 1.72
   4  0.122  0.378  0.750-   8 1.72   7 1.72
   5  0.750  0.122  0.378-   7 1.72   8 1.72
   6  0.378  0.750  0.122-   8 1.72   7 1.72
   7  0.000  0.000  0.000-   1 1.72   4 1.72   3 1.72   6 1.72   5 1.72   2 1.72   8 3.24   8 3.24
                             8 3.24   8 3.24   8 3.24   8 3.24
   8  0.500  0.500  0.500-   4 1.72   6 1.72   2 1.72   5 1.72   3 1.72   1 1.72   7 3.24   7 3.24
                             7 3.24   7 3.24   7 3.24   7 3.24
 
  LATTYP: Found a trigonal (rhomboedric) cell.
 ALAT       =     4.6988904738
 COS(alpha) =     0.5517061931
  
  Lattice vectors:
  
 A1 = (   2.5688045527,   0.0000000000,   3.9345666667)
 A2 = (  -1.2844022764,   2.2246500000,   3.9345666667)
 A3 = (  -1.2844022764,  -2.2246500000,   3.9345666667)
 Subroutine PRICEL returns:
 Original cell was already a primitive cell.
 

Analysis of symmetry for initial positions (statically):

 Routine SETGRP: Setting up the symmetry group for a 
 trigonal (rhombohedral) supercell.


 Subroutine GETGRP returns: Found 12 space group operations
 (whereof  6 operations were pure point group operations)
 out of a pool of 12 trial point group operations.


The static configuration has the point symmetry S_6 .
 The point group associated with its full space group is D_3d.

Analysis of symmetry for dynamics (positions and initial velocities):

 Subroutine DYNSYM returns: Found 12 space group operations
 (whereof  6 operations were pure point group operations)
 out of a pool of 12 trial space group operations
 (whereof  6 operations were pure point group operations)
 and found also     1 'primitive' translations


The dynamic configuration has the point symmetry S_6 .
 The point group associated with its full space group is D_3d.
 
 
 KPOINTS: 4x4x4                                   

Automatic generation of k-mesh.
 
 Subroutine IBZKPT returns following result:
 ===========================================
 
 Found     10 irreducible k-points:
 
 Following reciprocal coordinates:
            Coordinates               Weight
  0.125000  0.125000  0.125000      2.000000
  0.375000  0.125000  0.125000      6.000000
 -0.375000  0.125000  0.125000      6.000000
 -0.125000  0.125000  0.125000      6.000000
  0.375000  0.375000  0.125000      6.000000
 -0.375000  0.375000  0.125000     12.000000
 -0.125000  0.375000  0.125000     12.000000
 -0.375000 -0.375000  0.125000      6.000000
  0.375000  0.375000  0.375000      2.000000
 -0.375000  0.375000  0.375000      6.000000
 
 Following cartesian coordinates:
            Coordinates               Weight
  0.000000  0.000000  0.031770      2.000000
  0.064881  0.000000  0.052949      6.000000
 -0.129762  0.000000 -0.010590      6.000000
 -0.064881  0.000000  0.010590      6.000000
  0.032441  0.056189  0.074129      6.000000
 -0.162203  0.056189  0.010590     12.000000
 -0.097322  0.056189  0.031770     12.000000
 -0.064881 -0.112377 -0.052949      6.000000
  0.000000  0.000000  0.095309      2.000000
 -0.194643  0.000000  0.031770      6.000000
 


--------------------------------------------------------------------------------------------------------




 Dimension of arrays:
   k-Points           NKPTS =     10   number of bands    NBANDS=     16
   number of dos      NEDOS =    301   number of ions     NIONS =      8
   non local maximal  LDIM  =      4   non local SUM 2l+1 LMDIM =      8
   total plane-waves  NPLWV =  74088
   max r-space proj   IRMAX =   5763   max aug-charges    IRDMAX=  42942
   dimension x,y,z NGX =    42 NGY =   42 NGZ =   42
   dimension x,y,z NGXF=    84 NGYF=   84 NGZF=   84
   support grid    NGXF=    84 NGYF=   84 NGZF=   84
   ions per type =               6   2
 NGX,Y,Z   is equivalent  to a cutoff of  14.86, 14.86, 14.86 a.u.
 NGXF,Y,Z  is equivalent  to a cutoff of  29.72, 29.72, 29.72 a.u.


 I would recommend the setting:
   dimension x,y,z NGX =    41 NGY =   41 NGZ =   41
 SYSTEM =  idruro di alluminio                     
 POSCAR =   H 6   Al 2                             

 Startparameter for this run:
   NWRITE =      2    write-flag & timer
   PREC   = acc       medium, high low
   ISTART =      0    job   : 0-new  1-cont  2-samecut
   ICHARG =      2    charge: 1-file 2-atom 10-const
   ISPIN  =      1    spin polarized calculation?
   LNONCOLLINEAR =      F non collinear calculations
   LSORBIT =      F    spin-orbit coupling
   INIWAV =      1    electr: 0-lowe 1-rand  2-diag
   LASPH  =      F    aspherical Exc in radial PAW
   METAGGA=      F    non-selfconsistent MetaGGA calc.

 Electronic Relaxation 1
   ENCUT  =  700.0 eV  51.45 Ry    7.17 a.u.  10.14 10.14 10.14*2*pi/ulx,y,z
   ENINI  =  700.0     initial cutoff
   ENAUG  =  400.0 eV  augmentation charge cutoff
   NELM   =     60;   NELMIN=  2; NELMDL=  0     # of ELM steps 
   EDIFF  = 0.1E-08   stopping-criterion for ELM
   LREAL  =      T    real-space projection
   LCOMPAT=      F    compatible to vasp.4.4
   LREAL_COMPAT= F    compatible to vasp.4.5.1-3
   GGA_COMPAT  = T    GGA compatible to vasp.4.4-vasp.4.6
   LMAXPAW     = -100 max onsite density
   LMAXMIX     =    2 max onsite mixed and CHGCAR
   VOSKOWN=      0    Vosko Wilk Nusair interpolation
   ROPT   =   -0.00025  -0.00025
 Ionic relaxation
   EDIFFG = 0.1E-06   stopping-criterion for IOM
   NSW    =     50    number of steps for IOM
   NBLOCK =      1;   KBLOCK =     50    inner block; outer block 
   IBRION =      2    ionic relax: 0-MD 1-quasi-New 2-CG
   NFREE  =      1    steps in history (QN), initial steepest desc. (CG)
   ISIF   =      3    stress and relaxation
   IWAVPR =     11    prediction:  0-non 1-charg 2-wave 3-comb
   ISYM   =      2    0-nonsym 1-usesym 2-fastsym
   LCORR  =      T    Harris-Foulkes like correction to forces

   POTIM  =   0.50    time-step for ionic-motion
   TEIN   =    0.0    initial temperature
   TEBEG  =    0.0;   TEEND  =   0.0 temperature during run
   SMASS  =  -3.00    Nose mass-parameter (am)
   estimated Nose-frequenzy (Omega)   =  0.10E-29 period in steps =****** mass=  -0.505E-27a.u.
   NPACO  =    256;   APACO  = 16.0  distance and # of slots for P.C.
   PSTRESS=    0.0 pullay stress

  Mass of Ions in am
   POMASS =   1.00 26.98
  Ionic Valenz
   ZVAL   =   1.00  3.00
  Atomic Wigner-Seitz radii
   RWIGS  =  -1.00 -1.00
   NELECT =      12.0000    total number of electrons
   NUPDOWN=      -1.0000    fix difference up-down

 DOS related values:
   EMIN   =  10.00;   EMAX   =-10.00  energy-range for DOS
   ISMEAR =     0;   SIGMA  =   0.10  broadening in eV -4-tet -1-fermi 0-gaus

 Electronic relaxation 2 (details)
   IALGO  =     48    algorithm
   LDIAG  =      T    sub-space diagonalisation
   IMIX   =      4    mixing-type and parameters
     AMIX     =   0.40;   BMIX     =  1.00
     AMIX_MAG =   1.60;   BMIX_MAG =  1.00
     AMIN     =   0.10
     WC   =   100.;   INIMIX=   1;  MIXPRE=   1

 Intra band minimization:
   WEIMIN = 0.0010     energy-eigenvalue tresh-hold
   EBREAK =  0.23E-10  absolut break condition
   DEPER  =   0.30     relativ break condition  

   TIME   =   0.10     timestep for ELM

  volume/ion in A,a.u.               =       8.43        56.90
  Fermi-wavevector in a.u.,eV,Ry     =   0.920729 11.534217  0.847741

 Second variation
   LSECVAR=     F    do a second variation
 
 Write flags
   LWAVE  =      T    write WAVECAR
   LCHARG =      T    write CHGCAR
   LVTOT  =      F    write LOCPOT, local potential
   LELF   =      F    write electronic localiz. function (ELF)
   LORBIT =      0    0 simple, 1 ext, 2 COOP (PROOUT)


 Dipole corrections
   IDIPOL =      0    1-x, 2-y, 3-z
   LDIPOL =      F    correct potential



--------------------------------------------------------------------------------------------------------


 conjugate gradient relaxation of ions
 charge density will be updated during run
 non-spin polarized calculation
 RMM-DIIS sequential band-by-band
 performe sub-space diagonalisation
    before iterative eigenvector-optimisation
 modified Broyden-mixing scheme, WC =      100.0
 initial mixing is a Kerker type mixing with AMIX =  0.4000 and BMIX =      1.0000
 Hartree-type preconditioning will be used
 using additional bands           10
 real space projection scheme for non local part
 use partial core corrections
 calculate Harris-corrections to forces 
   (improved forces if not selfconsistent)
 use gradient corrections 
 use of overlap-Matrix (Vanderbilt PP)
 Gauss-broadening in eV      SIGMA  =   0.10


--------------------------------------------------------------------------------------------------------


  energy-cutoff  :      700.00
  volume of cell :       67.45
      direct lattice vectors                 reciprocal lattice vectors
     2.568804553  0.000000000  3.934566667     0.259524091  0.000000000  0.084719198
    -1.284402276  2.224650000  3.934566667    -0.129762046  0.224754456  0.084719198
    -1.284402276 -2.224650000  3.934566667    -0.129762046 -0.224754456  0.084719198

  length of vectors
     4.698890474  4.698890474  4.698890474     0.273002008  0.273002008  0.273002008


 
 k-points in units of 2pi/SCALE and weight: 4x4x4                                   
   0.00000000  0.00000000  0.03176970       0.031
   0.06488102  0.00000000  0.05294950       0.094
  -0.12976205  0.00000000 -0.01058990       0.094
  -0.06488102  0.00000000  0.01058990       0.094
   0.03244051  0.05618861  0.07412930       0.094
  -0.16220256  0.05618861  0.01058990       0.188
  -0.09732153  0.05618861  0.03176970       0.188
  -0.06488102 -0.11237723 -0.05294950       0.094
   0.00000000  0.00000000  0.09530910       0.031
  -0.19464307  0.00000000  0.03176970       0.094
 
 k-points in reciprocal lattice and weights: 4x4x4                                   
   0.12500000  0.12500000  0.12500000       0.031
   0.37500000  0.12500000  0.12500000       0.094
  -0.37500000  0.12500000  0.12500000       0.094
  -0.12500000  0.12500000  0.12500000       0.094
   0.37500000  0.37500000  0.12500000       0.094
  -0.37500000  0.37500000  0.12500000       0.188
  -0.12500000  0.37500000  0.12500000       0.188
  -0.37500000 -0.37500000  0.12500000       0.094
   0.37500000  0.37500000  0.37500000       0.031
  -0.37500000  0.37500000  0.37500000       0.094
 
 position of ions in fractional coordinates (direct lattice) 
   0.87800000  0.62200000  0.25000000
   0.25000000  0.87800000  0.62200000
   0.62200000  0.25000000  0.87800000
   0.12200000  0.37800000  0.75000000
   0.75000000  0.12200000  0.37800000
   0.37800000  0.75000000  0.12200000
   0.00000000  0.00000000  0.00000000
   0.50000000  0.50000000  0.50000000
 
 position of ions in cartesian coordinates  (Angst):
   1.13541161  0.82756980  6.88549167
  -1.28440228  0.56951040  6.88549167
   0.14899066 -1.39708020  6.88549167
  -1.13541161 -0.82756980  4.91820833
   1.28440228 -0.56951040  4.91820833
  -0.14899066  1.39708020  4.91820833
   0.00000000  0.00000000  0.00000000
   0.00000000  0.00000000  5.90185000
 


--------------------------------------------------------------------------------------------------------


 k-point  1 :  0.12500.12500.1250  plane waves:   2849
 k-point  2 :  0.37500.12500.1250  plane waves:   2832
 k-point  3 :  -.37500.12500.1250  plane waves:   2828
 k-point  4 :  -.12500.12500.1250  plane waves:   2838
 k-point  5 :  0.37500.37500.1250  plane waves:   2848
 k-point  6 :  -.37500.37500.1250  plane waves:   2835
 k-point  7 :  -.12500.37500.1250  plane waves:   2840
 k-point  8 :  -.3750-.37500.1250  plane waves:   2827
 k-point  9 :  0.37500.37500.3750  plane waves:   2861
 k-point 10 :  -.37500.37500.3750  plane waves:   2838

 maximum and minimum number of plane-waves per node :   2861  2827

 maximum number of plane-waves:   2861
 maximal index in each direction: 
   IXMAX= 10   IYMAX= 10   IZMAX= 10
   IXMIN=-10   IYMIN=-10   IZMIN=-10

 NGX is ok and might be reduce to  42
 NGY is ok and might be reduce to  42
 NGZ is ok and might be reduce to  42

 real space projection operators:
  total allocation   :   1681.34 KBytes
  max/ min on nodes  :   1681.34   1681.34


 parallel 3dFFT wavefunction:
    minimum data exchange during FFTs selected (reduces bandwidth)
 parallel 3dFFT charge:
    minimum data exchange during FFTs selected (reduces bandwidth)

 For storing wavefunctions    7.27 MBYTES are necessary
 For predicting wavefunctions    2.32 MBYTES are necessary
Broyden mixing: mesh for mixing (old mesh)
   NGX = 21   NGY = 21   NGZ = 21
  (NGX  = 84   NGY  = 84   NGZ  = 84)
 gives a total of   9261 points
 initial charge density was supplied:
 charge density of overlapping atoms calculated
 number of electron   12.0000000 magnetization 
 keeping initial charge density in first step


--------------------------------------------------------------------------------------------------------


 Maximum index for non-local projection operator         5527
 Maximum index for augmentation-charges         5804 (set IRDMAX)


--------------------------------------------------------------------------------------------------------


 First call to EWALD:  gamma=   0.435
 Maximum number of real-space cells 3x 3x 3
 Maximum number of reciprocal cells 3x 3x 3

    FEWALD:  VPU time    0.00: CPU time    0.00


----------------------------------------- Iteration    1(   1)  ---------------------------------------


    POTLOK:  VPU time    0.14: CPU time    0.14
    SETDIJ:  VPU time    0.01: CPU time    0.01
    EDDIAG:  VPU time    0.14: CPU time    0.14
  RMM-DIIS:  VPU time    0.52: CPU time    0.52
    ORTHCH:  VPU time    0.01: CPU time    0.01
    DOS   :  VPU time    0.00: CPU time    0.00
    ------------------------------------------
      LOOP:  VPU time    0.82: CPU time    0.82

 eigenvalue-minimisations  :   160
 total energy-change (2. order) : 0.3608559E+02  (-0.2609741E+03)
 number of electron   12.0000000 magnetization 
 augmentation part    12.0000000 magnetization 

 Free energy of the ion-electron system (eV)
  ---------------------------------------------------
  alpha Z        PSCENC =         2.20201777
  Ewald energy   TEWEN  =      -189.16161777
  -1/2 Hartree   DENC   =       -12.07941724
  -V(xc)+E(xc)   XCENC  =       -37.59802123
  PAW double counting   =        75.79646409      -11.93996669
  entropy T*S    EENTRO =        -0.00729119
  eigenvalues    EBANDS =        26.86723858
  atomic energy  EATOM  =       182.00618482
  ---------------------------------------------------
  free energy    TOTEN  =        36.08559113 eV

  energy without entropy =       36.09288232  energy(sigma->0) =       36.08923672


--------------------------------------------------------------------------------------------------------




----------------------------------------- Iteration    1(   2)  ---------------------------------------


    EDDIAG:  VPU time    0.14: CPU time    0.13
  RMM-DIIS:  VPU time    0.52: CPU time    0.52
    ORTHCH:  VPU time    0.01: CPU time    0.01
    DOS   :  VPU time    0.00: CPU time    0.00
    ------------------------------------------
      LOOP:  VPU time    0.66: CPU time    0.67

 eigenvalue-minimisations  :   160
 total energy-change (2. order) :-0.5042085E+02  (-0.4337560E+02)
 number of electron   12.0000000 magnetization 
 augmentation part    12.0000000 magnetization 

 Free energy of the ion-electron system (eV)
  ---------------------------------------------------
  alpha Z        PSCENC =         2.20201777
  Ewald energy   TEWEN  =      -189.16161777
  -1/2 Hartree   DENC   =       -12.07941724
  -V(xc)+E(xc)   XCENC  =       -37.59802123
  PAW double counting   =        75.79646409      -11.93996669
  entropy T*S    EENTRO =        -0.00004035
  eigenvalues    EBANDS =       -23.56085731
  atomic energy  EATOM  =       182.00618482
  ---------------------------------------------------
  free energy    TOTEN  =       -14.33525392 eV

  energy without entropy =      -14.33521357  energy(sigma->0) =      -14.33523375


--------------------------------------------------------------------------------------------------------




----------------------------------------- Iteration    1(   3)  ---------------------------------------


    EDDIAG:  VPU time    0.13: CPU time    0.13
  RMM-DIIS:  VPU time    0.52: CPU time    0.52
    ORTHCH:  VPU time    0.01: CPU time    0.01
    DOS   :  VPU time    0.00: CPU time    0.00
    ------------------------------------------
      LOOP:  VPU time    0.67: CPU time    0.67

 eigenvalue-minimisations  :   160
 total energy-change (2. order) :-0.1285168E+02  (-0.8197957E+01)
 number of electron   12.0000000 magnetization 
 augmentation part    12.0000000 magnetization 

 Free energy of the ion-electron system (eV)
  ---------------------------------------------------
  alpha Z        PSCENC =         2.20201777
  Ewald energy   TEWEN  =      -189.16161777
  -1/2 Hartree   DENC   =       -12.07941724
  -V(xc)+E(xc)   XCENC  =       -37.59802123
  PAW double counting   =        75.79646409      -11.93996669
  entropy T*S    EENTRO =         0.00000000
  eigenvalues    EBANDS =       -36.41257670
  atomic energy  EATOM  =       182.00618482
  ---------------------------------------------------
  free energy    TOTEN  =       -27.18693296 eV

  energy without entropy =      -27.18693296  energy(sigma->0) =      -27.18693296


--------------------------------------------------------------------------------------------------------




----------------------------------------- Iteration    1(   4)  ---------------------------------------


    EDDIAG:  VPU time    0.13: CPU time    0.13
  RMM-DIIS:  VPU time    0.52: CPU time    0.52
    ORTHCH:  VPU time    0.01: CPU time    0.01
    DOS   :  VPU time    0.00: CPU time    0.00
    ------------------------------------------
      LOOP:  VPU time    0.66: CPU time    0.67

 eigenvalue-minimisations  :   160
 total energy-change (2. order) :-0.1771442E+01  (-0.1160970E+01)
 number of electron   12.0000000 magnetization 
 augmentation part    12.0000000 magnetization 

 Free energy of the ion-electron system (eV)
  ---------------------------------------------------
  alpha Z        PSCENC =         2.20201777
  Ewald energy   TEWEN  =      -189.16161777
  -1/2 Hartree   DENC   =       -12.07941724
  -V(xc)+E(xc)   XCENC  =       -37.59802123
  PAW double counting   =        75.79646409      -11.93996669
  entropy T*S    EENTRO =         0.00000000
  eigenvalues    EBANDS =       -38.18401916
  atomic energy  EATOM  =       182.00618482
  ---------------------------------------------------
  free energy    TOTEN  =       -28.95837542 eV

  energy without entropy =      -28.95837542  energy(sigma->0) =      -28.95837542


--------------------------------------------------------------------------------------------------------




----------------------------------------- Iteration    1(   5)  ---------------------------------------


    EDDIAG:  VPU time    0.13: CPU time    0.13
  RMM-DIIS:  VPU time    0.51: CPU time    0.51
    ORTHCH:  VPU time    0.01: CPU time    0.01
    DOS   :  VPU time    0.00: CPU time    0.00
    ------------------------------------------
      LOOP:  VPU time    0.66: CPU time    0.66

 eigenvalue-minimisations  :   160
 total energy-change (2. order) :-0.1838268E+00  (-0.1361052E+00)
 number of electron   12.0000000 magnetization 
 augmentation part    12.0000000 magnetization 

 Free energy of the ion-electron system (eV)
  ---------------------------------------------------
  alpha Z        PSCENC =         2.20201777
  Ewald energy   TEWEN  =      -189.16161777
  -1/2 Hartree   DENC   =       -12.07941724
  -V(xc)+E(xc)   XCENC  =       -37.59802123
  PAW double counting   =        75.79646409      -11.93996669
  entropy T*S    EENTRO =         0.00000000
  eigenvalues    EBANDS =       -38.36784599
  atomic energy  EATOM  =       182.00618482
  ---------------------------------------------------
  free energy    TOTEN  =       -29.14220226 eV

  energy without entropy =      -29.14220226  energy(sigma->0) =      -29.14220226


--------------------------------------------------------------------------------------------------------




----------------------------------------- Iteration    1(   6)  ---------------------------------------


    EDDIAG:  VPU time    0.13: CPU time    0.13
  RMM-DIIS:  VPU time    0.52: CPU time    0.52
    ORTHCH:  VPU time    0.01: CPU time    0.01
    DOS   :  VPU time    0.00: CPU time    0.00
    ------------------------------------------
      LOOP:  VPU time    0.66: CPU time    0.67

 eigenvalue-minimisations  :   160
 total energy-change (2. order) :-0.2530149E-01  (-0.2204709E-01)
 number of electron   12.0000000 magnetization 
 augmentation part    12.0000000 magnetization 

 Free energy of the ion-electron system (eV)
  ---------------------------------------------------
  alpha Z        PSCENC =         2.20201777
  Ewald energy   TEWEN  =      -189.16161777
  -1/2 Hartree   DENC   =       -12.07941724
  -V(xc)+E(xc)   XCENC  =       -37.59802123
  PAW double counting   =        75.79646409      -11.93996669
  entropy T*S    EENTRO =         0.00000000
  eigenvalues    EBANDS =       -38.39314749
  atomic energy  EATOM  =       182.00618482
  ---------------------------------------------------
  free energy    TOTEN  =       -29.16750375 eV

  energy without entropy =      -29.16750375  energy(sigma->0) =      -29.16750375


--------------------------------------------------------------------------------------------------------




----------------------------------------- Iteration    1(   7)  ---------------------------------------


    EDDIAG:  VPU time    0.14: CPU time    0.13
  RMM-DIIS:  VPU time    0.52: CPU time    0.52
    ORTHCH:  VPU time    0.01: CPU time    0.01
    DOS   :  VPU time    0.00: CPU time    0.00
    ------------------------------------------
      LOOP:  VPU time    0.67: CPU time    0.67

 eigenvalue-minimisations  :   160
 total energy-change (2. order) :-0.5450614E-02  (-0.5239686E-02)
 number of electron   12.0000000 magnetization 
 augmentation part    12.0000000 magnetization 

 Free energy of the ion-electron system (eV)
  ---------------------------------------------------
  alpha Z        PSCENC =         2.20201777
  Ewald energy   TEWEN  =      -189.16161777
  -1/2 Hartree   DENC   =       -12.07941724
  -V(xc)+E(xc)   XCENC  =       -37.59802123
  PAW double counting   =        75.79646409      -11.93996669
  entropy T*S    EENTRO =         0.00000000
  eigenvalues    EBANDS =       -38.39859810
  atomic energy  EATOM  =       182.00618482
  ---------------------------------------------------
  free energy    TOTEN  =       -29.17295436 eV

  energy without entropy =      -29.17295436  energy(sigma->0) =      -29.17295436


--------------------------------------------------------------------------------------------------------




----------------------------------------- Iteration    1(   8)  ---------------------------------------


    EDDIAG:  VPU time    0.13: CPU time    0.13
  RMM-DIIS:  VPU time    0.52: CPU time    0.52
    ORTHCH:  VPU time    0.01: CPU time    0.01
    DOS   :  VPU time    0.00: CPU time    0.00
    ------------------------------------------
      LOOP:  VPU time    0.66: CPU time    0.67

 eigenvalue-minimisations  :   160
 total energy-change (2. order) :-0.1563520E-02  (-0.1529792E-02)
 number of electron   12.0000000 magnetization 
 augmentation part    12.0000000 magnetization 

 Free energy of the ion-electron system (eV)
  ---------------------------------------------------
  alpha Z        PSCENC =         2.20201777
  Ewald energy   TEWEN  =      -189.16161777
  -1/2 Hartree   DENC   =       -12.07941724
  -V(xc)+E(xc)   XCENC  =       -37.59802123
  PAW double counting   =        75.79646409      -11.93996669
  entropy T*S    EENTRO =         0.00000000
  eigenvalues    EBANDS =       -38.40016162
  atomic energy  EATOM  =       182.00618482
  ---------------------------------------------------
  free energy    TOTEN  =       -29.17451788 eV

  energy without entropy =      -29.17451788  energy(sigma->0) =      -29.17451788


--------------------------------------------------------------------------------------------------------




----------------------------------------- Iteration    1(   9)  ---------------------------------------


    EDDIAG:  VPU time    0.14: CPU time    0.14
  RMM-DIIS:  VPU time    0.92: CPU time    0.92
    ORTHCH:  VPU time    0.01: CPU time    0.01
    DOS   :  VPU time    0.00: CPU time    0.00
    ------------------------------------------
      LOOP:  VPU time    1.06: CPU time    1.07

 eigenvalue-minimisations  :   330
 total energy-change (2. order) :-0.6855771E-03  (-0.6788598E-03)
 number of electron   12.0000000 magnetization 
 augmentation part    12.0000000 magnetization 

 Free energy of the ion-electron system (eV)
  ---------------------------------------------------
  alpha Z        PSCENC =         2.20201777
  Ewald energy   TEWEN  =      -189.16161777
  -1/2 Hartree   DENC   =       -12.07941724
  -V(xc)+E(xc)   XCENC  =       -37.59802123
  PAW double counting   =        75.79646409      -11.93996669
  entropy T*S    EENTRO =         0.00000000
  eigenvalues    EBANDS =       -38.40084720
  atomic energy  EATOM  =       182.00618482
  ---------------------------------------------------
  free energy    TOTEN  =       -29.17520346 eV

  energy without entropy =      -29.17520346  energy(sigma->0) =      -29.17520346


--------------------------------------------------------------------------------------------------------




----------------------------------------- Iteration    1(  10)  ---------------------------------------


    EDDIAG:  VPU time    0.13: CPU time    0.13
  RMM-DIIS:  VPU time    1.00: CPU time    1.00
    ORTHCH:  VPU time    0.01: CPU time    0.01
    DOS   :  VPU time    0.00: CPU time    0.00
    ------------------------------------------
      LOOP:  VPU time    1.15: CPU time    1.15

 eigenvalue-minimisations  :   366
 total energy-change (2. order) :-0.8749156E-04  (-0.8721741E-04)
 number of electron   12.0000000 magnetization 
 augmentation part    12.0000000 magnetization 

 Free energy of the ion-electron system (eV)
  ---------------------------------------------------
  alpha Z        PSCENC =         2.20201777
  Ewald energy   TEWEN  =      -189.16161777
  -1/2 Hartree   DENC   =       -12.07941724
  -V(xc)+E(xc)   XCENC  =       -37.59802123
  PAW double counting   =        75.79646409      -11.93996669
  entropy T*S    EENTRO =         0.00000000
  eigenvalues    EBANDS =       -38.40093469
  atomic energy  EATOM  =       182.00618482
  ---------------------------------------------------
  free energy    TOTEN  =       -29.17529095 eV

  energy without entropy =      -29.17529095  energy(sigma->0) =      -29.17529095


--------------------------------------------------------------------------------------------------------




----------------------------------------- Iteration    1(  11)  ---------------------------------------


    EDDIAG:  VPU time    0.14: CPU time    0.13
  RMM-DIIS:  VPU time    0.90: CPU time    0.90
    ORTHCH:  VPU time    0.02: CPU time    0.01
    DOS   :  VPU time    0.00: CPU time    0.00
    ------------------------------------------
      LOOP:  VPU time    1.05: CPU time    1.05

 eigenvalue-minimisations  :   329
 total energy-change (2. order) :-0.5962318E-06  (-0.5869326E-06)
 number of electron   12.0000000 magnetization 
 augmentation part    12.0000000 magnetization 

 Free energy of the ion-electron system (eV)
  ---------------------------------------------------
  alpha Z        PSCENC =         2.20201777
  Ewald energy   TEWEN  =      -189.16161777
  -1/2 Hartree   DENC   =       -12.07941724
  -V(xc)+E(xc)   XCENC  =       -37.59802123
  PAW double counting   =        75.79646409      -11.93996669
  entropy T*S    EENTRO =         0.00000000
  eigenvalues    EBANDS =       -38.40093529
  atomic energy  EATOM  =       182.00618482
  ---------------------------------------------------
  free energy    TOTEN  =       -29.17529155 eV

  energy without entropy =      -29.17529155  energy(sigma->0) =      -29.17529155


--------------------------------------------------------------------------------------------------------




----------------------------------------- Iteration    1(  12)  ---------------------------------------


    EDDIAG:  VPU time    0.13: CPU time    0.13
  RMM-DIIS:  VPU time    0.94: CPU time    0.94
    ORTHCH:  VPU time    0.01: CPU time    0.01
    DOS   :  VPU time    0.00: CPU time    0.00
    CHARGE:  VPU time    0.06: CPU time    0.06
    MIXING:  VPU time    0.00: CPU time    0.00
    ------------------------------------------
      LOOP:  VPU time    1.14: CPU time    1.15

 eigenvalue-minimisations  :   336
 total energy-change (2. order) :-0.8947165E-07  (-0.8911991E-07)
 number of electron   12.0000000 magnetization 
 augmentation part     0.0988500 magnetization 

 Broyden mixing:
  rms(total) = 0.78359E+00    rms(broyden)= 0.78358E+00
  rms(prec ) = 0.17335E+01
  weight for this iteration     100.00

 Free energy of the ion-electron system (eV)
  ---------------------------------------------------
  alpha Z        PSCENC =         2.20201777
  Ewald energy   TEWEN  =      -189.16161777
  -1/2 Hartree   DENC   =       -12.07941724
  -V(xc)+E(xc)   XCENC  =       -37.59802123
  PAW double counting   =        75.79646409      -11.93996669
  entropy T*S    EENTRO =         0.00000000
  eigenvalues    EBANDS =       -38.40093538
  atomic energy  EATOM  =       182.00618482
  ---------------------------------------------------
  free energy    TOTEN  =       -29.17529164 eV

  energy without entropy =      -29.17529164  energy(sigma->0) =      -29.17529164


--------------------------------------------------------------------------------------------------------




----------------------------------------- Iteration    1(  13)  ---------------------------------------


    POTLOK:  VPU time    0.14: CPU time    0.14
    SETDIJ:  VPU time    0.00: CPU time    0.01
    EDDIAG:  VPU time    0.13: CPU time    0.13
  RMM-DIIS:  VPU time    0.92: CPU time    0.91
    ORTHCH:  VPU time    0.01: CPU time    0.01
    DOS   :  VPU time    0.00: CPU time    0.00
    CHARGE:  VPU time    0.06: CPU time    0.06
    MIXING:  VPU time    0.00: CPU time    0.00
    ------------------------------------------
      LOOP:  VPU time    1.28: CPU time    1.27

 eigenvalue-minimisations  :   320
 total energy-change (2. order) : 0.9800916E+00  (-0.3848842E-01)
 number of electron   12.0000000 magnetization 
 augmentation part     0.0872107 magnetization 

 Broyden mixing:
  rms(total) = 0.42114E+00    rms(broyden)= 0.42114E+00
  rms(prec ) = 0.94697E+00
  weight for this iteration     100.00

 eigenvalues of (default mixing * dielectric matrix)
  average eigenvalue GAMMA=   2.1378
  2.1378

 Free energy of the ion-electron system (eV)
  ---------------------------------------------------
  alpha Z        PSCENC =         2.20201777
  Ewald energy   TEWEN  =      -189.16161777
  -1/2 Hartree   DENC   =       -16.68276976
  -V(xc)+E(xc)   XCENC  =       -36.63689280
  PAW double counting   =        81.89101115      -18.04632389
  entropy T*S    EENTRO =         0.00000000
  eigenvalues    EBANDS =       -33.76680959
  atomic energy  EATOM  =       182.00618482
  ---------------------------------------------------
  free energy    TOTEN  =       -28.19520006 eV

  energy without entropy =      -28.19520006  energy(sigma->0) =      -28.19520006


--------------------------------------------------------------------------------------------------------




----------------------------------------- Iteration    1(  14)  ---------------------------------------


    POTLOK:  VPU time    0.14: CPU time    0.14
    SETDIJ:  VPU time    0.00: CPU time    0.01
    EDDIAG:  VPU time    0.13: CPU time    0.13
  RMM-DIIS:  VPU time    0.91: CPU time    0.91
    ORTHCH:  VPU time    0.01: CPU time    0.01
    DOS   :  VPU time    0.00: CPU time    0.00
    CHARGE:  VPU time    0.06: CPU time    0.06
    MIXING:  VPU time    0.00: CPU time    0.00
    ------------------------------------------
      LOOP:  VPU time    1.26: CPU time    1.27

 eigenvalue-minimisations  :   320
 total energy-change (2. order) : 0.3746694E+00  (-0.6936636E-01)
 number of electron   12.0000000 magnetization 
 augmentation part     0.0723067 magnetization 

 Broyden mixing:
  rms(total) = 0.44379E-01    rms(broyden)= 0.44376E-01
  rms(prec ) = 0.93082E-01
  weight for this iteration     100.00

 eigenvalues of (default mixing * dielectric matrix)
  average eigenvalue GAMMA=   2.4835
  2.4736  2.4934

 Free energy of the ion-electron system (eV)
  ---------------------------------------------------
  alpha Z        PSCENC =         2.20201777
  Ewald energy   TEWEN  =      -189.16161777
  -1/2 Hartree   DENC   =       -23.91544001
  -V(xc)+E(xc)   XCENC  =       -35.20881941
  PAW double counting   =        92.67671698      -28.87882175
  entropy T*S    EENTRO =         0.00000000
  eigenvalues    EBANDS =       -27.54075133
  atomic energy  EATOM  =       182.00618482
  ---------------------------------------------------
  free energy    TOTEN  =       -27.82053071 eV

  energy without entropy =      -27.82053071  energy(sigma->0) =      -27.82053071


--------------------------------------------------------------------------------------------------------




----------------------------------------- Iteration    1(  15)  ---------------------------------------


    POTLOK:  VPU time    0.14: CPU time    0.14
    SETDIJ:  VPU time    0.00: CPU time    0.01
    EDDIAG:  VPU time    0.13: CPU time    0.13
  RMM-DIIS:  VPU time    0.91: CPU time    0.91
    ORTHCH:  VPU time    0.01: CPU time    0.01
    DOS   :  VPU time    0.00: CPU time    0.00
    CHARGE:  VPU time    0.06: CPU time    0.06
    MIXING:  VPU time    0.00: CPU time    0.01
    ------------------------------------------
      LOOP:  VPU time    1.27: CPU time    1.27

 eigenvalue-minimisations  :   320
 total energy-change (2. order) :-0.7507753E-02  (-0.1569232E-02)
 number of electron   12.0000000 magnetization 
 augmentation part     0.0731464 magnetization 

 Broyden mixing:
  rms(total) = 0.10988E-01    rms(broyden)= 0.10987E-01
  rms(prec ) = 0.24849E-01
  weight for this iteration     100.00

 eigenvalues of (default mixing * dielectric matrix)
  average eigenvalue GAMMA=   2.0965
  2.7334  1.7780  1.7780

 Free energy of the ion-electron system (eV)
  ---------------------------------------------------
  alpha Z        PSCENC =         2.20201777
  Ewald energy   TEWEN  =      -189.16161777
  -1/2 Hartree   DENC   =       -24.14441686
  -V(xc)+E(xc)   XCENC  =       -35.17775443
  PAW double counting   =        92.50226612      -28.73464796
  entropy T*S    EENTRO =         0.00000000
  eigenvalues    EBANDS =       -27.32007015
  atomic energy  EATOM  =       182.00618482
  ---------------------------------------------------
  free energy    TOTEN  =       -27.82803846 eV

  energy without entropy =      -27.82803846  energy(sigma->0) =      -27.82803846


--------------------------------------------------------------------------------------------------------




----------------------------------------- Iteration    1(  16)  ---------------------------------------


    POTLOK:  VPU time    0.14: CPU time    0.14
    SETDIJ:  VPU time    0.01: CPU time    0.01
    EDDIAG:  VPU time    0.13: CPU time    0.13
  RMM-DIIS:  VPU time    0.91: CPU time    0.91
    ORTHCH:  VPU time    0.01: CPU time    0.01
    DOS   :  VPU time    0.00: CPU time    0.00
    CHARGE:  VPU time    0.06: CPU time    0.06
    MIXING:  VPU time    0.00: CPU time    0.00
    ------------------------------------------
      LOOP:  VPU time    1.26: CPU time    1.27

 eigenvalue-minimisations  :   320
 total energy-change (2. order) : 0.8762184E-04  (-0.9522737E-04)
 number of electron   12.0000000 magnetization 
 augmentation part     0.0726176 magnetization 

 Broyden mixing:
  rms(total) = 0.35804E-02    rms(broyden)= 0.35802E-02
  rms(prec ) = 0.67791E-02
  weight for this iteration     100.00

 eigenvalues of (default mixing * dielectric matrix)
  average eigenvalue GAMMA=   2.1496
  0.9618  3.0299  2.4551  2.1515

 Free energy of the ion-electron system (eV)
  ---------------------------------------------------
  alpha Z        PSCENC =         2.20201777
  Ewald energy   TEWEN  =      -189.16161777
  -1/2 Hartree   DENC   =       -24.34183003
  -V(xc)+E(xc)   XCENC  =       -35.13913247
  PAW double counting   =        92.75529990      -28.98447125
  entropy T*S    EENTRO =         0.00000000
  eigenvalues    EBANDS =       -27.16440181
  atomic energy  EATOM  =       182.00618482
  ---------------------------------------------------
  free energy    TOTEN  =       -27.82795084 eV

  energy without entropy =      -27.82795084  energy(sigma->0) =      -27.82795084


--------------------------------------------------------------------------------------------------------




----------------------------------------- Iteration    1(  17)  ---------------------------------------


    POTLOK:  VPU time    0.14: CPU time    0.14
    SETDIJ:  VPU time    0.01: CPU time    0.01
    EDDIAG:  VPU time    0.13: CPU time    0.13
  RMM-DIIS:  VPU time    0.91: CPU time    0.91
    ORTHCH:  VPU time    0.01: CPU time    0.01
    DOS   :  VPU time    0.00: CPU time    0.00
    CHARGE:  VPU time    0.06: CPU time    0.06
    MIXING:  VPU time    0.00: CPU time    0.00
    ------------------------------------------
      LOOP:  VPU time    1.26: CPU time    1.27

 eigenvalue-minimisations  :   320
 total energy-change (2. order) :-0.1208275E-03  (-0.2063067E-04)
 number of electron   12.0000000 magnetization 
 augmentation part     0.0726514 magnetization 

 Broyden mixing:
  rms(total) = 0.72376E-03    rms(broyden)= 0.72373E-03
  rms(prec ) = 0.12336E-02
  weight for this iteration     100.00

 eigenvalues of (default mixing * dielectric matrix)
  average eigenvalue GAMMA=   1.9787
  2.9298  2.4102  2.1439  0.9827  1.4267

 Free energy of the ion-electron system (eV)
  ---------------------------------------------------
  alpha Z        PSCENC =         2.20201777
  Ewald energy   TEWEN  =      -189.16161777
  -1/2 Hartree   DENC   =       -24.33211803
  -V(xc)+E(xc)   XCENC  =       -35.14240230
  PAW double counting   =        92.61793404      -28.84332358
  entropy T*S    EENTRO =         0.00000000
  eigenvalues    EBANDS =       -27.17474662
  atomic energy  EATOM  =       182.00618482
  ---------------------------------------------------
  free energy    TOTEN  =       -27.82807167 eV

  energy without entropy =      -27.82807167  energy(sigma->0) =      -27.82807167


--------------------------------------------------------------------------------------------------------




----------------------------------------- Iteration    1(  18)  ---------------------------------------


    POTLOK:  VPU time    0.14: CPU time    0.14
    SETDIJ:  VPU time    0.01: CPU time    0.01
    EDDIAG:  VPU time    0.13: CPU time    0.13
  RMM-DIIS:  VPU time    0.92: CPU time    0.91
    ORTHCH:  VPU time    0.01: CPU time    0.01
    DOS   :  VPU time    0.00: CPU time    0.00
    CHARGE:  VPU time    0.06: CPU time    0.06
    MIXING:  VPU time    0.00: CPU time    0.00
    ------------------------------------------
      LOOP:  VPU time    1.27: CPU time    1.28

 eigenvalue-minimisations  :   327
 total energy-change (2. order) :-0.9163372E-06  (-0.5564917E-06)
 number of electron   12.0000000 magnetization 
 augmentation part     0.0726315 magnetization 

 Broyden mixing:
  rms(total) = 0.27043E-03    rms(broyden)= 0.27042E-03
  rms(prec ) = 0.64538E-03
  weight for this iteration     100.00

 eigenvalues of (default mixing * dielectric matrix)
  average eigenvalue GAMMA=   2.1107
  3.3585  2.8827  2.3659  2.1727  0.9422  0.9422

 Free energy of the ion-electron system (eV)
  ---------------------------------------------------
  alpha Z        PSCENC =         2.20201777
  Ewald energy   TEWEN  =      -189.16161777
  -1/2 Hartree   DENC   =       -24.34092250
  -V(xc)+E(xc)   XCENC  =       -35.14085160
  PAW double counting   =        92.64189144      -28.86750456
  entropy T*S    EENTRO =         0.00000000
  eigenvalues    EBANDS =       -27.16727019
  atomic energy  EATOM  =       182.00618482
  ---------------------------------------------------
  free energy    TOTEN  =       -27.82807258 eV

  energy without entropy =      -27.82807258  energy(sigma->0) =      -27.82807258


--------------------------------------------------------------------------------------------------------




----------------------------------------- Iteration    1(  19)  ---------------------------------------


    POTLOK:  VPU time    0.14: CPU time    0.14
    SETDIJ:  VPU time    0.01: CPU time    0.01
    EDDIAG:  VPU time    0.13: CPU time    0.13
  RMM-DIIS:  VPU time    0.91: CPU time    0.90
    ORTHCH:  VPU time    0.01: CPU time    0.01
    DOS   :  VPU time    0.00: CPU time    0.00
    CHARGE:  VPU time    0.06: CPU time    0.06
    MIXING:  VPU time    0.00: CPU time    0.00
    ------------------------------------------
      LOOP:  VPU time    1.26: CPU time    1.26

 eigenvalue-minimisations  :   320
 total energy-change (2. order) :-0.6057423E-06  (-0.2018900E-06)
 number of electron   12.0000000 magnetization 
 augmentation part     0.0726460 magnetization 

 Broyden mixing:
  rms(total) = 0.81506E-04    rms(broyden)= 0.81506E-04
  rms(prec ) = 0.17212E-03
  weight for this iteration     100.00

 eigenvalues of (default mixing * dielectric matrix)
  average eigenvalue GAMMA=   1.9349
  3.2698  2.7958  2.3095  2.1534  0.9430  1.0365  1.0365

 Free energy of the ion-electron system (eV)
  ---------------------------------------------------
  alpha Z        PSCENC =         2.20201777
  Ewald energy   TEWEN  =      -189.16161777
  -1/2 Hartree   DENC   =       -24.33864118
  -V(xc)+E(xc)   XCENC  =       -35.14173156
  PAW double counting   =        92.63708795      -28.86274933
  entropy T*S    EENTRO =         0.00000000
  eigenvalues    EBANDS =       -27.16862390
  atomic energy  EATOM  =       182.00618482
  ---------------------------------------------------
  free energy    TOTEN  =       -27.82807319 eV

  energy without entropy =      -27.82807319  energy(sigma->0) =      -27.82807319


--------------------------------------------------------------------------------------------------------




----------------------------------------- Iteration    1(  20)  ---------------------------------------


    POTLOK:  VPU time    0.14: CPU time    0.14
    SETDIJ:  VPU time    0.01: CPU time    0.01
    EDDIAG:  VPU time    0.13: CPU time    0.13
  RMM-DIIS:  VPU time    0.93: CPU time    0.93
    ORTHCH:  VPU time    0.01: CPU time    0.01
    DOS   :  VPU time    0.00: CPU time    0.00
    CHARGE:  VPU time    0.06: CPU time    0.06
    MIXING:  VPU time    0.00: CPU time    0.01
    ------------------------------------------
      LOOP:  VPU time    1.29: CPU time    1.29

 eigenvalue-minimisations  :   333
 total energy-change (2. order) : 0.3924961E-07  (-0.6987212E-08)
 number of electron   12.0000000 magnetization 
 augmentation part     0.0726451 magnetization 

 Broyden mixing:
  rms(total) = 0.18381E-04    rms(broyden)= 0.18381E-04
  rms(prec ) = 0.36180E-04
  weight for this iteration     100.00

 eigenvalues of (default mixing * dielectric matrix)
  average eigenvalue GAMMA=   2.0234
  3.2304  3.0959  2.5702  2.1975  2.1975  1.0340  0.9734  0.8886

 Free energy of the ion-electron system (eV)
  ---------------------------------------------------
  alpha Z        PSCENC =         2.20201777
  Ewald energy   TEWEN  =      -189.16161777
  -1/2 Hartree   DENC   =       -24.33926696
  -V(xc)+E(xc)   XCENC  =       -35.14157598
  PAW double counting   =        92.63824401      -28.86387941
  entropy T*S    EENTRO =         0.00000000
  eigenvalues    EBANDS =       -27.16817962
  atomic energy  EATOM  =       182.00618482
  ---------------------------------------------------
  free energy    TOTEN  =       -27.82807315 eV

  energy without entropy =      -27.82807315  energy(sigma->0) =      -27.82807315


--------------------------------------------------------------------------------------------------------




----------------------------------------- Iteration    1(  21)  ---------------------------------------


    POTLOK:  VPU time    0.14: CPU time    0.14
    SETDIJ:  VPU time    0.01: CPU time    0.01
    EDDIAG:  VPU time    0.13: CPU time    0.13
  RMM-DIIS:  VPU time    0.90: CPU time    0.91
    ORTHCH:  VPU time    0.02: CPU time    0.01
    DOS   :  VPU time    0.00: CPU time    0.00
    CHARGE:  VPU time    0.06: CPU time    0.06
    MIXING:  VPU time    0.00: CPU time    0.00
    ------------------------------------------
      LOOP:  VPU time    1.27: CPU time    1.27

 eigenvalue-minimisations  :   320
 total energy-change (2. order) :-0.2017609E-07  (-0.8621147E-09)
 number of electron   12.0000000 magnetization 
 augmentation part     0.0726440 magnetization 

 Broyden mixing:
  rms(total) = 0.14055E-04    rms(broyden)= 0.14055E-04
  rms(prec ) = 0.28718E-04
  weight for this iteration     100.00

 eigenvalues of (default mixing * dielectric matrix)
  average eigenvalue GAMMA=   1.9316
  3.3190  2.9228  2.6630  2.3345  2.0756  1.2046  1.0121  0.9674  0.8857

 Free energy of the ion-electron system (eV)
  ---------------------------------------------------
  alpha Z        PSCENC =         2.20201777
  Ewald energy   TEWEN  =      -189.16161777
  -1/2 Hartree   DENC   =       -24.33956947
  -V(xc)+E(xc)   XCENC  =       -35.14150694
  PAW double counting   =        92.63896059      -28.86459687
  entropy T*S    EENTRO =         0.00000000
  eigenvalues    EBANDS =       -27.16794530
  atomic energy  EATOM  =       182.00618482
  ---------------------------------------------------
  free energy    TOTEN  =       -27.82807317 eV

  energy without entropy =      -27.82807317  energy(sigma->0) =      -27.82807317


--------------------------------------------------------------------------------------------------------




----------------------------------------- Iteration    1(  22)  ---------------------------------------


    POTLOK:  VPU time    0.14: CPU time    0.14
    SETDIJ:  VPU time    0.01: CPU time    0.01
    EDDIAG:  VPU time    0.13: CPU time    0.13
  RMM-DIIS:  VPU time    0.67: CPU time    0.67
    ORTHCH:  VPU time    0.01: CPU time    0.01
    DOS   :  VPU time    0.00: CPU time    0.00
    CHARGE:  VPU time    0.06: CPU time    0.06
    MIXING:  VPU time    0.00: CPU time    0.01
    ------------------------------------------
      LOOP:  VPU time    1.03: CPU time    1.03

 eigenvalue-minimisations  :   220
 total energy-change (2. order) :-0.5518842E-08  (-0.9736869E-10)
 number of electron   12.0000000 magnetization 
 augmentation part     0.0726446 magnetization 

 Broyden mixing:
  rms(total) = 0.10880E-05    rms(broyden)= 0.10880E-05
  rms(prec ) = 0.21937E-05
  weight for this iteration     100.00

 eigenvalues of (default mixing * dielectric matrix)
  average eigenvalue GAMMA=   1.9858
  3.3929  3.1721  2.8067  2.3353  2.1030  2.1627  1.0344  0.9764  0.9764  0.8982

 Free energy of the ion-electron system (eV)
  ---------------------------------------------------
  alpha Z        PSCENC =         2.20201777
  Ewald energy   TEWEN  =      -189.16161777
  -1/2 Hartree   DENC   =       -24.33940245
  -V(xc)+E(xc)   XCENC  =       -35.14154135
  PAW double counting   =        92.63867307      -28.86431442
  entropy T*S    EENTRO =         0.00000000
  eigenvalues    EBANDS =       -27.16807284
  atomic energy  EATOM  =       182.00618482
  ---------------------------------------------------
  free energy    TOTEN  =       -27.82807317 eV

  energy without entropy =      -27.82807317  energy(sigma->0) =      -27.82807317


--------------------------------------------------------------------------------------------------------




----------------------------------------- Iteration    1(  23)  ---------------------------------------


    POTLOK:  VPU time    0.14: CPU time    0.14
    SETDIJ:  VPU time    0.01: CPU time    0.01
    EDDIAG:  VPU time    0.13: CPU time    0.13
  RMM-DIIS:  VPU time    0.61: CPU time    0.60
    ORTHCH:  VPU time    0.01: CPU time    0.01
    DOS   :  VPU time    0.00: CPU time    0.00
    ------------------------------------------
      LOOP:  VPU time    0.90: CPU time    0.90

 eigenvalue-minimisations  :   197
 total energy-change (2. order) : 0.5272227E-09  (-0.1438395E-10)
 number of electron   12.0000000 magnetization 
 augmentation part     0.0726446 magnetization 

 Free energy of the ion-electron system (eV)
  ---------------------------------------------------
  alpha Z        PSCENC =         2.20201777
  Ewald energy   TEWEN  =      -189.16161777
  -1/2 Hartree   DENC   =       -24.33940748
  -V(xc)+E(xc)   XCENC  =       -35.14153970
  PAW double counting   =        92.63867888      -28.86431993
  entropy T*S    EENTRO =         0.00000000
  eigenvalues    EBANDS =       -27.16806977
  atomic energy  EATOM  =       182.00618482
  ---------------------------------------------------
  free energy    TOTEN  =       -27.82807317 eV

  energy without entropy =      -27.82807317  energy(sigma->0) =      -27.82807317


--------------------------------------------------------------------------------------------------------




 average (electrostatic) potential at core
  the test charge radii are     0.5201  1.0406
  (the norm of the test charge is              1.0000)
       1 -33.6164       2 -33.6164       3 -33.6164       4 -33.6164       5 -33.6164
       6 -33.6164       7 -77.6497       8 -77.6497
 
 
 
 E-fermi :   1.3994     XC(G=0):  -8.7617     alpha+bet : -9.7338
   add alpha+bet to get absolut eigen values

 k-point   1 :       0.1250    0.1250    0.1250
  band No.  band energies     occupation 
      1      -7.6350      2.00000
      2      -2.0976      2.00000
      3      -0.8499      2.00000
      4      -0.8499      2.00000
      5       0.7004      2.00000
      6       0.7004      2.00000
      7       3.7635      0.00000
      8       6.9175      0.00000
      9       6.9175      0.00000
     10       7.0226      0.00000
     11       7.7605      0.00000
     12       8.5717      0.00000
     13       8.5717      0.00000
     14      10.7664      0.00000
     15      12.7622      0.00000
     16      16.3183      0.00000

 k-point   2 :       0.3750    0.1250    0.1250
  band No.  band energies     occupation 
      1      -6.8562      2.00000
      2      -3.2946      2.00000
      3      -1.9324      2.00000
      4      -0.4967      2.00000
      5      -0.4210      2.00000
      6       0.6769      2.00000
      7       4.9418      0.00000
      8       5.7652      0.00000
      9       7.7684      0.00000
     10       7.9382      0.00000
     11       8.3160      0.00000
     12      10.7218      0.00000
     13      11.2238      0.00000
     14      11.8860      0.00000
     15      13.7560      0.00000
     16      14.9780      0.00000

 k-point   3 :      -0.3750    0.1250    0.1250
  band No.  band energies     occupation 
      1      -5.6372      2.00000
      2      -4.9573      2.00000
      3      -1.4576      2.00000
      4      -1.2777      2.00000
      5      -0.5081      2.00000
      6       0.2408      2.00000
      7       4.9321      0.00000
      8       5.6752      0.00000
      9       7.6885      0.00000
     10       9.4670      0.00000
     11      10.5001      0.00000
     12      11.3632      0.00000
     13      11.5458      0.00000
     14      12.6236      0.00000
     15      12.8779      0.00000
     16      15.2534      0.00000

 k-point   4 :      -0.1250    0.1250    0.1250
  band No.  band energies     occupation 
      1      -7.2095      2.00000
      2      -2.3265      2.00000
      3      -1.3439      2.00000
      4      -1.2858      2.00000
      5      -0.2269      2.00000
      6       0.6673      2.00000
      7       4.3519      0.00000
      8       6.4658      0.00000
      9       6.7866      0.00000
     10       7.5304      0.00000
     11       8.2677      0.00000
     12       8.9206      0.00000
     13      11.1927      0.00000
     14      12.7767      0.00000
     15      14.3455      0.00000
     16      14.8558      0.00000

 k-point   5 :       0.3750    0.3750    0.1250
  band No.  band energies     occupation 
      1      -6.5311      2.00000
      2      -3.3331      2.00000
      3      -1.7791      2.00000
      4      -1.6279      2.00000
      5      -1.1549      2.00000
      6       0.9099      2.00000
      7       6.2158      0.00000
      8       6.8340      0.00000
      9       7.8376      0.00000
     10       8.3316      0.00000
     11       9.0393      0.00000
     12      10.5513      0.00000
     13      11.1787      0.00000
     14      11.9359      0.00000
     15      13.7052      0.00000
     16      14.0733      0.00000

 k-point   6 :      -0.3750    0.3750    0.1250
  band No.  band energies     occupation 
      1      -5.1885      2.00000
      2      -4.3434      2.00000
      3      -2.8653      2.00000
      4      -2.5293      2.00000
      5      -0.5007      2.00000
      6       0.7095      2.00000
      7       6.4671      0.00000
      8       7.3730      0.00000
      9       8.1562      0.00000
     10       8.9158      0.00000
     11      10.3252      0.00000
     12      10.7441      0.00000
     13      11.3012      0.00000
     14      12.7744      0.00000
     15      13.7771      0.00000
     16      14.2982      0.00000

 k-point   7 :      -0.1250    0.3750    0.1250
  band No.  band energies     occupation 
      1      -6.0471      2.00000
      2      -3.9601      2.00000
      3      -2.1566      2.00000
      4      -1.5766      2.00000
      5      -0.5425      2.00000
      6       0.2875      2.00000
      7       5.9086      0.00000
      8       6.4996      0.00000
      9       7.5320      0.00000
     10       8.4472      0.00000
     11       9.5824      0.00000
     12      10.6163      0.00000
     13      11.6045      0.00000
     14      13.0141      0.00000
     15      14.7023      0.00000
     16      17.1581      0.00000

 k-point   8 :      -0.3750   -0.3750    0.1250
  band No.  band energies     occupation 
      1      -5.5210      2.00000
      2      -3.4717      2.00000
      3      -3.2448      2.00000
      4      -2.0269      2.00000
      5      -1.5151      2.00000
      6       0.8362      2.00000
      7       6.2027      0.00000
      8       7.8851      0.00000
      9       8.1721      0.00000
     10       9.3184      0.00000
     11      10.7527      0.00000
     12      10.8984      0.00000
     13      11.7049      0.00000
     14      12.8662      0.00000
     15      13.7652      0.00000
     16      14.0925      0.00000

 k-point   9 :       0.3750    0.3750    0.3750
  band No.  band energies     occupation 
      1      -6.5765      2.00000
      2      -4.5614      2.00000
      3      -0.6155      2.00000
      4      -0.6155      2.00000
      5       0.0003      2.00000
      6       0.0003      2.00000
      7       5.3444      0.00000
      8       6.3771      0.00000
      9       8.1546      0.00000
     10       8.1546      0.00000
     11       9.0667      0.00000
     12      10.3196      0.00000
     13      10.3196      0.00000
     14      12.7235      0.00000
     15      13.3294      0.00000
     16      13.3465      0.00000

 k-point  10 :      -0.3750    0.3750    0.3750
  band No.  band energies     occupation 
      1      -5.4971      2.00000
      2      -4.9448      2.00000
      3      -2.5163      2.00000
      4      -1.3815      2.00000
      5      -0.1599      2.00000
      6       0.6017      2.00000
      7       6.3913      0.00000
      8       6.8737      0.00000
      9       8.0161      0.00000
     10       8.8129      0.00000
     11       9.4295      0.00000
     12      11.5733      0.00000
     13      11.9890      0.00000
     14      12.1765      0.00000
     15      12.3087      0.00000
     16      16.1525      0.00000


--------------------------------------------------------------------------------------------------------


 soft charge-density along one line, spin component           1
         0         1         2         3         4         5         6         7         8         9
 total charge-density along one line
 
 pseudopotential strength for first ion, spin component:           1
 -2.236   0.005   0.000   0.000   0.000
  0.005   0.050   0.000   0.000   0.000
  0.000   0.000  -0.366   0.001   0.001
  0.000   0.000   0.001  -0.366   0.001
  0.000   0.000   0.001   0.001  -0.367
 total augmentation occupancy for first ion, spin component:           1
  1.608  -0.376   0.030   0.001  -0.049
 -0.376   0.110  -0.008   0.000   0.013
  0.030  -0.008   0.003   0.001   0.000
  0.001   0.000   0.001   0.003   0.000
 -0.049   0.013   0.000   0.000   0.004


------------------------ aborting loop because EDIFF is reached ----------------------------------------




--------------------------------------------------------------------------------------------------------


    CHARGE:  VPU time    0.06: CPU time    0.06
    FORLOC:  VPU time    0.01: CPU time    0.01
    FORNL :  VPU time    0.48: CPU time    0.48
    STRESS:  VPU time    1.38: CPU time    1.38
    FORCOR:  VPU time    0.14: CPU time    0.13
    FORHAR:  VPU time    0.05: CPU time    0.05
    MIXING:  VPU time    0.00: CPU time    0.00


--------------------------------------------------------------------------------------------------------



  FREE ENERGIE OF THE ION-ELECTRON SYSTEM (eV)
  ---------------------------------------------------
  free  energy   TOTEN  =       -27.828073 eV

  energy  without entropy=      -27.828073  energy(sigma->0) =      -27.828073
 

  FORCE on cell =-STRESS in cart. coord.  units (eV/reduce length):
  Direction    X        Y        Z        XY       YZ       ZX
  --------------------------------------------------------------------------------------
  Alpha Z      2.20      2.20      2.20
  Ewald      -63.77    -63.77    -61.63      0.00      0.00      0.00
  Hartree      7.75      7.75      8.84      0.00      0.00      0.00
  E(xc)      -35.64    -35.64    -35.60      0.00      0.00      0.00
  Local      -17.19    -17.19    -20.62      0.00      0.00      0.00
  n-local     16.97     17.91     17.44      0.35      0.16     -0.39
  augment     -0.67     -0.67     -0.67      0.00      0.00      0.00
  Kinetic     88.29     92.44     90.45     -0.59     -3.56     -1.32
  -------------------------------------------------------------------------------------
  Total        0.51      0.51      0.40      0.00      0.00      0.00
  in kB       12.02     12.02      9.60      0.00      0.00      0.00
  external pressure =       11.22 kB  Pullay stress =        0.00 kB


 VOLUME and BASIS-vectors are now :
 -----------------------------------------------------------------------------
  energy-cutoff  :      700.00
  volume of cell :       67.45
      direct lattice vectors                 reciprocal lattice vectors
     2.568804553  0.000000000  3.934566667     0.259524091  0.000000000  0.084719198
    -1.284402276  2.224650000  3.934566667    -0.129762046  0.224754456  0.084719198
    -1.284402276 -2.224650000  3.934566667    -0.129762046 -0.224754456  0.084719198

  length of vectors
     4.698890474  4.698890474  4.698890474     0.273002008  0.273002008  0.273002008


 FORCES acting on ions
    electron-ion (+dipol)            ewald-force                    non-local-force                 convergence-correction
 -----------------------------------------------------------------------------------------------
   -.492E+01 0.284E+01 -.382E-10   0.584E+01 -.337E+01 -.954E-10   -.892E+00 0.515E+00 0.867E-18   -.923E-07 0.533E-07 0.855E-15
   0.506E-09 -.568E+01 -.140E-09   0.196E-10 0.674E+01 0.338E-10   0.347E-17 -.103E+01 0.000E+00   0.102E-07 -.277E-06 -.742E-07
   0.492E+01 0.284E+01 0.520E-10   -.584E+01 -.337E+01 -.357E-10   0.892E+00 0.515E+00 0.000E+00   0.245E-06 0.130E-06 0.742E-07
   0.492E+01 -.284E+01 0.368E-10   -.584E+01 0.337E+01 -.229E-10   0.892E+00 -.515E+00 0.260E-17   0.923E-07 -.533E-07 -.212E-15
   -.506E-09 0.568E+01 0.140E-09   -.310E-11 -.674E+01 0.402E-10   0.000E+00 0.103E+01 0.000E+00   -.102E-07 0.277E-06 0.742E-07
   -.492E+01 -.284E+01 -.524E-10   0.584E+01 0.337E+01 0.251E-11   -.892E+00 -.515E+00 0.000E+00   -.245E-06 -.130E-06 -.742E-07
   -.305E-12 0.278E-13 -.460E-12   -.359E-10 0.354E-14 -.488E-10   0.827E-24 -.165E-23 0.000E+00   0.847E-15 -.161E-15 0.117E-15
   -.127E-09 -.184E-12 -.130E-09   0.118E-09 -.550E-14 0.126E-09   -.124E-23 0.000E+00 0.000E+00   -.862E-15 0.404E-15 0.692E-15
 -----------------------------------------------------------------------------------------------
   -.128E-09 0.371E-12 -.132E-09   0.365E-15 0.702E-15 -.153E-14   -.111E-15 -.165E-23 0.347E-17   0.685E-16 0.344E-15 0.177E-14
 
 
 POSITION                                       TOTAL-FORCE (eV/Angst)
 -----------------------------------------------------------------------------------
      1.13541      0.82757      6.88549         0.029271     -0.016900      0.000000
     -1.28440      0.56951      6.88549         0.000000      0.033799      0.000000
      0.14899     -1.39708      6.88549        -0.029271     -0.016900      0.000000
     -1.13541     -0.82757      4.91821        -0.029271      0.016900      0.000000
      1.28440     -0.56951      4.91821         0.000000     -0.033799      0.000000
     -0.14899      1.39708      4.91821         0.029271      0.016900      0.000000
      0.00000      0.00000      0.00000         0.000000      0.000000      0.000000
      0.00000      0.00000      5.90185         0.000000      0.000000      0.000000
 -----------------------------------------------------------------------------------
    total drift:                                0.000000      0.000000      0.000000


--------------------------------------------------------------------------------------------------------




--------------------------------------------------------------------------------------------------------


    WAVPRE:  VPU time    0.02: CPU time    0.02
    FEWALD:  VPU time    0.00: CPU time    0.00
    GENKIN:  VPU time    0.04: CPU time    0.04

 real space projection operators:
  total allocation   :   1666.44 KBytes
  max/ min on nodes  :   1666.44   1666.44

    ORTHCH:  VPU time    0.15: CPU time    0.15
     LOOP+:  VPU time   26.30: CPU time   26.43


----------------------------------------- Iteration    2(   1)  ---------------------------------------


    POTLOK:  VPU time    0.14: CPU time    0.14
    SETDIJ:  VPU time    0.01: CPU time    0.01
    EDDIAG:  VPU time    0.13: CPU time    0.13
  RMM-DIIS:  VPU time    0.91: CPU time    0.91
    ORTHCH:  VPU time    0.01: CPU time    0.01
    DOS   :  VPU time    0.00: CPU time    0.00
    CHARGE:  VPU time    0.06: CPU time    0.06
    MIXING:  VPU time    0.00: CPU time    0.00
    ------------------------------------------
      LOOP:  VPU time    1.27: CPU time    1.27

 eigenvalue-minimisations  :   320
 total energy-change (2. order) :-0.2783121E+02  (-0.1286052E-02)
 number of electron   12.0000000 magnetization 
 augmentation part     0.0718758 magnetization 

 Broyden mixing:
  rms(total) = 0.54445E-02    rms(broyden)= 0.54415E-02
  rms(prec ) = 0.12879E-01
  weight for this iteration     100.00

 Free energy of the ion-electron system (eV)
  ---------------------------------------------------
  alpha Z        PSCENC =         2.18331380
  Ewald energy   TEWEN  =      -188.68948944
  -1/2 Hartree   DENC   =       -24.24148777
  -V(xc)+E(xc)   XCENC  =       -35.21643848
  PAW double counting   =        92.63869561      -28.86433663
  entropy T*S    EENTRO =         0.00000000
  eigenvalues    EBANDS =       -27.64765446
  atomic energy  EATOM  =       182.00618482
  ---------------------------------------------------
  free energy    TOTEN  =       -27.83121256 eV

  energy without entropy =      -27.83121256  energy(sigma->0) =      -27.83121256


--------------------------------------------------------------------------------------------------------




----------------------------------------- Iteration    2(   2)  ---------------------------------------


    POTLOK:  VPU time    0.15: CPU time    0.15
    SETDIJ:  VPU time    0.01: CPU time    0.01
    EDDIAG:  VPU time    0.13: CPU time    0.13
  RMM-DIIS:  VPU time    0.91: CPU time    0.91
    ORTHCH:  VPU time    0.01: CPU time    0.01
    DOS   :  VPU time    0.00: CPU time    0.00
    CHARGE:  VPU time    0.06: CPU time    0.06
    MIXING:  VPU time    0.00: CPU time    0.00
    ------------------------------------------
      LOOP:  VPU time    1.27: CPU time    1.28

 eigenvalue-minimisations  :   320
 total energy-change (2. order) : 0.5055368E-04  (-0.5561889E-05)
 number of electron   12.0000000 magnetization 
 augmentation part     0.0719347 magnetization 

 Broyden mixing:
  rms(total) = 0.36335E-02    rms(broyden)= 0.36333E-02
  rms(prec ) = 0.85215E-02
  weight for this iteration     100.00

 eigenvalues of (default mixing * dielectric matrix)
  average eigenvalue GAMMA=   2.9254
  2.9254

 Free energy of the ion-electron system (eV)
  ---------------------------------------------------
  alpha Z        PSCENC =         2.18331380
  Ewald energy   TEWEN  =      -188.68948944
  -1/2 Hartree   DENC   =       -24.27624555
  -V(xc)+E(xc)   XCENC  =       -35.21339642
  PAW double counting   =        92.52364899      -28.74744024
  entropy T*S    EENTRO =         0.00000000
  eigenvalues    EBANDS =       -27.61773797
  atomic energy  EATOM  =       182.00618482
  ---------------------------------------------------
  free energy    TOTEN  =       -27.83116201 eV

  energy without entropy =      -27.83116201  energy(sigma->0) =      -27.83116201


--------------------------------------------------------------------------------------------------------




----------------------------------------- Iteration    2(   3)  ---------------------------------------


    POTLOK:  VPU time    0.14: CPU time    0.14
    SETDIJ:  VPU time    0.01: CPU time    0.01
    EDDIAG:  VPU time    0.13: CPU time    0.13
  RMM-DIIS:  VPU time    0.90: CPU time    0.90
    ORTHCH:  VPU time    0.01: CPU time    0.01
    DOS   :  VPU time    0.00: CPU time    0.00
    CHARGE:  VPU time    0.06: CPU time    0.06
    MIXING:  VPU time    0.00: CPU time    0.00
    ------------------------------------------
      LOOP:  VPU time    1.26: CPU time    1.26

 eigenvalue-minimisations  :   320
 total energy-change (2. order) : 0.4356477E-04  (-0.2985711E-05)
 number of electron   12.0000000 magnetization 
 augmentation part     0.0719800 magnetization 

 Broyden mixing:
  rms(total) = 0.47738E-03    rms(broyden)= 0.47730E-03
  rms(prec ) = 0.88088E-03
  weight for this iteration     100.00

 eigenvalues of (default mixing * dielectric matrix)
  average eigenvalue GAMMA=   1.8167
  1.0938  2.5396

 Free energy of the ion-electron system (eV)
  ---------------------------------------------------
  alpha Z        PSCENC =         2.18331380
  Ewald energy   TEWEN  =      -188.68948944
  -1/2 Hartree   DENC   =       -24.34529750
  -V(xc)+E(xc)   XCENC  =       -35.20701519
  PAW double counting   =        92.32830451      -28.54883170
  entropy T*S    EENTRO =         0.00000000
  eigenvalues    EBANDS =       -27.55828774
  atomic energy  EATOM  =       182.00618482
  ---------------------------------------------------
  free energy    TOTEN  =       -27.83111845 eV

  energy without entropy =      -27.83111845  energy(sigma->0) =      -27.83111845


--------------------------------------------------------------------------------------------------------




----------------------------------------- Iteration    2(   4)  ---------------------------------------


    POTLOK:  VPU time    0.14: CPU time    0.14
    SETDIJ:  VPU time    0.01: CPU time    0.01
    EDDIAG:  VPU time    0.13: CPU time    0.13
  RMM-DIIS:  VPU time    0.94: CPU time    0.95
    ORTHCH:  VPU time    0.01: CPU time    0.01
    DOS   :  VPU time    0.00: CPU time    0.00
    CHARGE:  VPU time    0.06: CPU time    0.06
    MIXING:  VPU time    0.00: CPU time    0.00
    ------------------------------------------
      LOOP:  VPU time    1.30: CPU time    1.31

 eigenvalue-minimisations  :   339
 total energy-change (2. order) :-0.9375636E-06  (-0.6556914E-07)
 number of electron   12.0000000 magnetization 
 augmentation part     0.0719954 magnetization 

 Broyden mixing:
  rms(total) = 0.17002E-03    rms(broyden)= 0.17002E-03
  rms(prec ) = 0.31767E-03
  weight for this iteration     100.00

 eigenvalues of (default mixing * dielectric matrix)
  average eigenvalue GAMMA=   2.1031
  0.9584  2.6755  2.6755

 Free energy of the ion-electron system (eV)
  ---------------------------------------------------
  alpha Z        PSCENC =         2.18331380
  Ewald energy   TEWEN  =      -188.68948944
  -1/2 Hartree   DENC   =       -24.33945147
  -V(xc)+E(xc)   XCENC  =       -35.20771470
  PAW double counting   =        92.34507613      -28.56584840
  entropy T*S    EENTRO =         0.00000000
  eigenvalues    EBANDS =       -27.56319013
  atomic energy  EATOM  =       182.00618482
  ---------------------------------------------------
  free energy    TOTEN  =       -27.83111938 eV

  energy without entropy =      -27.83111938  energy(sigma->0) =      -27.83111938


--------------------------------------------------------------------------------------------------------




----------------------------------------- Iteration    2(   5)  ---------------------------------------


    POTLOK:  VPU time    0.14: CPU time    0.14
    SETDIJ:  VPU time    0.01: CPU time    0.01
    EDDIAG:  VPU time    0.13: CPU time    0.13
  RMM-DIIS:  VPU time    0.90: CPU time    0.90
    ORTHCH:  VPU time    0.01: CPU time    0.01
    DOS   :  VPU time    0.00: CPU time    0.00
    CHARGE:  VPU time    0.06: CPU time    0.06
    MIXING:  VPU time    0.00: CPU time    0.00
    ------------------------------------------
      LOOP:  VPU time    1.26: CPU time    1.26

 eigenvalue-minimisations  :   320
 total energy-change (2. order) :-0.3393360E-06  (-0.2850856E-07)
 number of electron   12.0000000 magnetization 
 augmentation part     0.0720001 magnetization 

 Broyden mixing:
  rms(total) = 0.39645E-04    rms(broyden)= 0.39643E-04
  rms(prec ) = 0.92991E-04
  weight for this iteration     100.00

[...]

 Broyden mixing:
  rms(total) = 0.23552E-05    rms(broyden)= 0.23549E-05
  rms(prec ) = 0.50018E-05
  weight for this iteration     100.00

 eigenvalues of (default mixing * dielectric matrix)
  average eigenvalue GAMMA=   1.7627
  1.0777  2.4477

 Free energy of the ion-electron system (eV)
  ---------------------------------------------------
  alpha Z        PSCENC =         2.15862225
  Ewald energy   TEWEN  =      -187.51956782
  -1/2 Hartree   DENC   =       -24.71022277
  -V(xc)+E(xc)   XCENC  =       -35.25956536
  PAW double counting   =        92.19628082      -28.41417716
  entropy T*S    EENTRO =         0.00000000
  eigenvalues    EBANDS =       -28.28950418
  atomic energy  EATOM  =       182.00618482
  ---------------------------------------------------
  free energy    TOTEN  =       -27.83194941 eV

  energy without entropy =      -27.83194941  energy(sigma->0) =      -27.83194941


--------------------------------------------------------------------------------------------------------




----------------------------------------- Iteration   17(   4)  ---------------------------------------


    POTLOK:  VPU time    0.14: CPU time    0.14
    SETDIJ:  VPU time    0.01: CPU time    0.01
    EDDIAG:  VPU time    0.13: CPU time    0.13
  RMM-DIIS:  VPU time    0.52: CPU time    0.52
    ORTHCH:  VPU time    0.01: CPU time    0.01
    DOS   :  VPU time    0.00: CPU time    0.00
    CHARGE:  VPU time    0.06: CPU time    0.06
    MIXING:  VPU time    0.00: CPU time    0.00
    ------------------------------------------
      LOOP:  VPU time    0.88: CPU time    0.88

 eigenvalue-minimisations  :   166
 total energy-change (2. order) : 0.1448484E-08  (-0.7857191E-11)
 number of electron   12.0000000 magnetization 
 augmentation part     0.0717122 magnetization 

 Broyden mixing:
  rms(total) = 0.95253E-06    rms(broyden)= 0.95247E-06
  rms(prec ) = 0.20185E-05
  weight for this iteration     100.00

 eigenvalues of (default mixing * dielectric matrix)
  average eigenvalue GAMMA=   2.2208
  0.9583  3.1194  2.5846

 Free energy of the ion-electron system (eV)
  ---------------------------------------------------
  alpha Z        PSCENC =         2.15862225
  Ewald energy   TEWEN  =      -187.51956782
  -1/2 Hartree   DENC   =       -24.71025149
  -V(xc)+E(xc)   XCENC  =       -35.25956198
  PAW double counting   =        92.19624029      -28.41413634
  entropy T*S    EENTRO =         0.00000000
  eigenvalues    EBANDS =       -28.28947914
  atomic energy  EATOM  =       182.00618482
  ---------------------------------------------------
  free energy    TOTEN  =       -27.83194941 eV

  energy without entropy =      -27.83194941  energy(sigma->0) =      -27.83194941


--------------------------------------------------------------------------------------------------------




----------------------------------------- Iteration   17(   5)  ---------------------------------------


    POTLOK:  VPU time    0.14: CPU time    0.14
    SETDIJ:  VPU time    0.01: CPU time    0.01
    EDDIAG:  VPU time    0.13: CPU time    0.13
  RMM-DIIS:  VPU time    0.44: CPU time    0.44
    ORTHCH:  VPU time    0.01: CPU time    0.01
    DOS   :  VPU time    0.00: CPU time    0.00
    CHARGE:  VPU time    0.06: CPU time    0.06
    MIXING:  VPU time    0.00: CPU time    0.00
    ------------------------------------------
      LOOP:  VPU time    0.79: CPU time    0.79

 eigenvalue-minimisations  :    91
 total energy-change (2. order) :-0.2426475E-08  (-0.5646594E-12)
 number of electron   12.0000000 magnetization 
 augmentation part     0.0717122 magnetization 

 Broyden mixing:
  rms(total) = 0.20018E-06    rms(broyden)= 0.20017E-06
  rms(prec ) = 0.42850E-06
  weight for this iteration     100.00

 eigenvalues of (default mixing * dielectric matrix)
  average eigenvalue GAMMA=   1.8004
  2.7724  2.4208  1.0508  0.9574

 Free energy of the ion-electron system (eV)
  ---------------------------------------------------
  alpha Z        PSCENC =         2.15862225
  Ewald energy   TEWEN  =      -187.51956782
  -1/2 Hartree   DENC   =       -24.71024153
  -V(xc)+E(xc)   XCENC  =       -35.25956221
  PAW double counting   =        92.19625797      -28.41415512
  entropy T*S    EENTRO =         0.00000000
  eigenvalues    EBANDS =       -28.28948779
  atomic energy  EATOM  =       182.00618482
  ---------------------------------------------------
  free energy    TOTEN  =       -27.83194941 eV

  energy without entropy =      -27.83194941  energy(sigma->0) =      -27.83194941


--------------------------------------------------------------------------------------------------------




----------------------------------------- Iteration   17(   6)  ---------------------------------------


    POTLOK:  VPU time    0.14: CPU time    0.14
    SETDIJ:  VPU time    0.01: CPU time    0.01
    EDDIAG:  VPU time    0.13: CPU time    0.13
  RMM-DIIS:  VPU time    0.36: CPU time    0.35
    ORTHCH:  VPU time    0.01: CPU time    0.01
    DOS   :  VPU time    0.00: CPU time    0.00
    ------------------------------------------
      LOOP:  VPU time    0.64: CPU time    0.65

 eigenvalue-minimisations  :    28
 total energy-change (2. order) : 0.3659864E-09  ( 0.0000000E+00)
 number of electron   12.0000000 magnetization 
 augmentation part     0.0717122 magnetization 

 Free energy of the ion-electron system (eV)
  ---------------------------------------------------
  alpha Z        PSCENC =         2.15862225
  Ewald energy   TEWEN  =      -187.51956782
  -1/2 Hartree   DENC   =       -24.71024161
  -V(xc)+E(xc)   XCENC  =       -35.25956233
  PAW double counting   =        92.19625549      -28.41415246
  entropy T*S    EENTRO =         0.00000000
  eigenvalues    EBANDS =       -28.28948775
  atomic energy  EATOM  =       182.00618482
  ---------------------------------------------------
  free energy    TOTEN  =       -27.83194941 eV

  energy without entropy =      -27.83194941  energy(sigma->0) =      -27.83194941


--------------------------------------------------------------------------------------------------------




 average (electrostatic) potential at core
  the test charge radii are     0.5201  1.0406
  (the norm of the test charge is              1.0000)
       1 -33.7125       2 -33.7125       3 -33.7125       4 -33.7125       5 -33.7125
       6 -33.7125       7 -77.8225       8 -77.8225
 
 
 
 E-fermi :   1.2508     XC(G=0):  -8.6846     alpha+bet : -9.5420
   add alpha+bet to get absolut eigen values

 k-point   1 :       0.1250    0.1250    0.1250
  band No.  band energies     occupation 
      1      -7.6545      2.00000
      2      -2.1677      2.00000
      3      -1.0006      2.00000
      4      -1.0006      2.00000
      5       0.5810      2.00000
      6       0.5810      2.00000
      7       3.5137      0.00000
      8       6.7518      0.00000
      9       6.7518      0.00000
     10       6.9177      0.00000
     11       7.5282      0.00000
     12       8.4011      0.00000
     13       8.4011      0.00000
     14      10.6451      0.00000
     15      12.5176      0.00000
     16      16.1036      0.00000

 k-point   2 :       0.3750    0.1250    0.1250
  band No.  band energies     occupation 
      1      -6.8893      2.00000
      2      -3.3975      2.00000
      3      -2.0067      2.00000
      4      -0.6327      2.00000
      5      -0.5352      2.00000
      6       0.5450      2.00000
      7       4.7202      0.00000
      8       5.6092      0.00000
      9       7.5964      0.00000
     10       7.7498      0.00000
     11       8.1985      0.00000
     12      10.4661      0.00000
     13      11.0029      0.00000
     14      11.7076      0.00000
     15      13.5367      0.00000
     16      14.6938      0.00000

 k-point   3 :      -0.3750    0.1250    0.1250
  band No.  band energies     occupation 
      1      -5.6998      2.00000
      2      -5.0269      2.00000
      3      -1.5371      2.00000
      4      -1.3898      2.00000
      5      -0.6212      2.00000
      6       0.1249      2.00000
      7       4.7727      0.00000
      8       5.4936      0.00000
      9       7.5673      0.00000
     10       9.2866      0.00000
     11      10.2853      0.00000
     12      11.0760      0.00000
     13      11.2880      0.00000
     14      12.3240      0.00000
     15      12.7003      0.00000
     16      14.9205      0.00000

 k-point   4 :      -0.1250    0.1250    0.1250
  band No.  band energies     occupation 
      1      -7.2392      2.00000
      2      -2.4497      2.00000
      3      -1.4716      2.00000
      4      -1.3752      2.00000
      5      -0.3349      2.00000
      6       0.5608      2.00000
      7       4.1407      0.00000
      8       6.3561      0.00000
      9       6.6030      0.00000
     10       7.3631      0.00000
     11       8.0891      0.00000
     12       8.7059      0.00000
     13      10.9270      0.00000
     14      12.5805      0.00000
     15      14.0561      0.00000
     16      14.5811      0.00000

 k-point   5 :       0.3750    0.3750    0.1250
  band No.  band energies     occupation 
      1      -6.5684      2.00000
      2      -3.4064      2.00000
      3      -1.8898      2.00000
      4      -1.7323      2.00000
      5      -1.2885      2.00000
      6       0.7977      2.00000
      7       5.9769      0.00000
      8       6.6792      0.00000
      9       7.6134      0.00000
     10       8.1451      0.00000
     11       8.8468      0.00000
     12      10.3768      0.00000
     13      10.9743      0.00000
     14      11.7339      0.00000
     15      13.4695      0.00000
     16      13.8858      0.00000

 k-point   6 :      -0.3750    0.3750    0.1250
  band No.  band energies     occupation 
      1      -5.2574      2.00000
      2      -4.4349      2.00000
      3      -2.9366      2.00000
      4      -2.5948      2.00000
      5      -0.6159      2.00000
      6       0.5840      2.00000
      7       6.2957      0.00000
      8       7.2017      0.00000
      9       7.9305      0.00000
     10       8.7298      0.00000
     11      10.0704      0.00000
     12      10.5370      0.00000
     13      11.0734      0.00000
     14      12.5397      0.00000
     15      13.4931      0.00000
     16      14.0621      0.00000

 k-point   7 :      -0.1250    0.3750    0.1250
  band No.  band energies     occupation 
      1      -6.1006      2.00000
      2      -4.0581      2.00000
      3      -2.2437      2.00000
      4      -1.6663      2.00000
      5      -0.6429      2.00000
      6       0.1816      2.00000
      7       5.6943      0.00000
      8       6.3271      0.00000
      9       7.3510      0.00000
     10       8.3108      0.00000
     11       9.3691      0.00000
     12      10.3966      0.00000
     13      11.3783      0.00000
     14      12.7645      0.00000
     15      14.3753      0.00000
     16      16.2985      0.00000

 k-point   8 :      -0.3750   -0.3750    0.1250
  band No.  band energies     occupation 
      1      -5.5907      2.00000
      2      -3.5643      2.00000
      3      -3.2966      2.00000
      4      -2.1354      2.00000
      5      -1.6222      2.00000
      6       0.7387      2.00000
      7       6.0647      0.00000
      8       7.6790      0.00000
      9       7.9700      0.00000
     10       9.0825      0.00000
     11      10.5201      0.00000
     12      10.6517      0.00000
     13      11.4427      0.00000
     14      12.6229      0.00000
     15      13.5147      0.00000
     16      13.8403      0.00000

 k-point   9 :       0.3750    0.3750    0.3750
  band No.  band energies     occupation 
      1      -6.6057      2.00000
      2      -4.6098      2.00000
      3      -0.7582      2.00000
      4      -0.7582      2.00000
      5      -0.1324      2.00000
      6      -0.1324      2.00000
      7       5.0949      0.00000
      8       6.1460      0.00000
      9       8.0043      0.00000
     10       8.0043      0.00000
     11       8.9014      0.00000
     12      10.1558      0.00000
     13      10.1558      0.00000
     14      12.4963      0.00000
     15      13.0999      0.00000
     16      13.0999      0.00000

 k-point  10 :      -0.3750    0.3750    0.3750
  band No.  band energies     occupation 
      1      -5.5442      2.00000
      2      -5.0039      2.00000
      3      -2.6031      2.00000
      4      -1.4975      2.00000
      5      -0.2943      2.00000
      6       0.4571      2.00000
      7       6.2305      0.00000
      8       6.6220      0.00000
      9       7.8549      0.00000
     10       8.6464      0.00000
     11       9.2045      0.00000
     12      11.3464      0.00000
     13      11.7830      0.00000
     14      11.9818      0.00000
     15      12.0667      0.00000
     16      15.9818      0.00000


--------------------------------------------------------------------------------------------------------


 soft charge-density along one line, spin component           1
         0         1         2         3         4         5         6         7         8         9
 total charge-density along one line
 
 pseudopotential strength for first ion, spin component:           1
 -2.237   0.004   0.000   0.000   0.000
  0.004   0.050   0.000   0.000   0.000
  0.000   0.000  -0.366   0.001   0.001
  0.000   0.000   0.001  -0.366   0.001
  0.000   0.000   0.001   0.001  -0.366
 total augmentation occupancy for first ion, spin component:           1
  1.597  -0.374   0.029   0.001  -0.047
 -0.374   0.109  -0.007   0.000   0.012
  0.029  -0.007   0.003   0.001   0.000
  0.001   0.000   0.001   0.003   0.000
 -0.047   0.012   0.000   0.000   0.004


------------------------ aborting loop because EDIFF is reached ----------------------------------------




--------------------------------------------------------------------------------------------------------


    CHARGE:  VPU time    0.06: CPU time    0.06
    FORLOC:  VPU time    0.01: CPU time    0.01
    FORNL :  VPU time    0.48: CPU time    0.48
    STRESS:  VPU time    1.40: CPU time    1.40
    FORCOR:  VPU time    0.14: CPU time    0.14
    FORHAR:  VPU time    0.04: CPU time    0.05
    MIXING:  VPU time    0.00: CPU time    0.00
 d Force =-0.6394693E-08[-0.469E-08,-0.810E-08]  d Energy = 0.7581187E-07-0.822E-07
 d Force = 0.2789906E-03[ 0.279E-03, 0.279E-03]  d Ewald  = 0.2737300E-02-0.246E-02


--------------------------------------------------------------------------------------------------------



  FREE ENERGIE OF THE ION-ELECTRON SYSTEM (eV)
  ---------------------------------------------------
  free  energy   TOTEN  =       -27.831949 eV

  energy  without entropy=      -27.831949  energy(sigma->0) =      -27.831949
 

  FORCE on cell =-STRESS in cart. coord.  units (eV/reduce length):
  Direction    X        Y        Z        XY       YZ       ZX
  --------------------------------------------------------------------------------------
  Alpha Z      2.16      2.16      2.16
  Ewald      -63.09    -63.09    -61.33      0.00      0.00      0.00
  Hartree      7.87      7.87      8.97      0.00      0.00      0.00
  E(xc)      -35.49    -35.49    -35.46      0.00      0.00      0.00
  Local      -17.81    -17.81    -20.88      0.00      0.00      0.00
  n-local     16.85     17.78     17.25      0.35      0.15     -0.39
  augment     -0.68     -0.68     -0.67      0.00      0.00      0.00
  Kinetic     87.64     91.82     89.96     -0.57     -3.50     -1.30
  -------------------------------------------------------------------------------------
  Total        0.00      0.00      0.00      0.00      0.00      0.00
  in kB        0.00      0.00     -0.01      0.00      0.00      0.00
  external pressure =        0.00 kB  Pullay stress =        0.00 kB


 VOLUME and BASIS-vectors are now :
 -----------------------------------------------------------------------------
  energy-cutoff  :      700.00
  volume of cell :       68.81
      direct lattice vectors                 reciprocal lattice vectors
     2.590792692  0.000000000  3.945825502     0.257321502  0.000000000  0.084477464
    -1.295396346  2.243692287  3.945825502    -0.128660751  0.222846958  0.084477464
    -1.295396346 -2.243692287  3.945825502    -0.128660751 -0.222846958  0.084477464

  length of vectors
     4.720354400  4.720354400  4.720354400     0.270833523  0.270833523  0.270833523


 FORCES acting on ions
    electron-ion (+dipol)            ewald-force                    non-local-force                 convergence-correction
 -----------------------------------------------------------------------------------------------
   -.487E+01 0.281E+01 -.384E-10   0.574E+01 -.331E+01 -.939E-10   -.870E+00 0.502E+00 -.222E-14   0.175E-06 -.101E-06 -.426E-16
   0.890E-09 -.562E+01 -.172E-09   0.190E-10 0.663E+01 0.346E-10   0.000E+00 -.100E+01 0.000E+00   0.100E-07 0.318E-07 -.750E-07
   0.487E+01 0.281E+01 0.849E-10   -.574E+01 -.331E+01 -.345E-10   0.870E+00 0.502E+00 0.222E-14   -.225E-07 -.246E-07 0.750E-07
   0.487E+01 -.281E+01 0.368E-10   -.574E+01 0.331E+01 -.228E-10   0.870E+00 -.502E+00 0.222E-14   -.175E-06 0.101E-06 0.259E-16
   -.889E-09 0.562E+01 0.173E-09   -.350E-11 -.663E+01 0.398E-10   0.000E+00 0.100E+01 0.000E+00   -.100E-07 -.318E-07 0.750E-07
   -.487E+01 -.281E+01 -.849E-10   0.574E+01 0.331E+01 0.147E-11   -.870E+00 -.502E+00 -.222E-14   0.225E-07 0.246E-07 -.750E-07
   -.302E-12 0.281E-13 -.446E-12   -.358E-10 -.643E-14 -.473E-10   0.646E-26 0.116E-24 0.465E-24   -.557E-16 0.458E-15 -.293E-15
   -.126E-09 -.183E-12 -.126E-09   0.117E-09 0.106E-13 0.123E-09   -.155E-24 0.465E-24 -.207E-24   0.442E-15 -.631E-15 0.148E-14
 -----------------------------------------------------------------------------------------------
   -.127E-09 0.721E-13 -.127E-09   -.973E-15 0.234E-14 0.259E-14   -.149E-24 -.333E-15 0.607E-17   0.911E-15 -.224E-15 0.216E-14
 
 
 POSITION                                       TOTAL-FORCE (eV/Angst)
 -----------------------------------------------------------------------------------
      1.13678      0.83948      6.90519        -0.000096      0.000056      0.000000
     -1.29540      0.56474      6.90519         0.000000     -0.000111      0.000000
      0.15862     -1.40422      6.90519         0.000096      0.000056      0.000000
     -1.13678     -0.83948      4.93228         0.000096     -0.000056      0.000000
      1.29540     -0.56474      4.93228         0.000000      0.000111      0.000000
     -0.15862      1.40422      4.93228        -0.000096     -0.000056      0.000000
      0.00000      0.00000      0.00000         0.000000      0.000000      0.000000
      0.00000      0.00000      5.91874         0.000000      0.000000      0.000000
 -----------------------------------------------------------------------------------
    total drift:                                0.000000      0.000000      0.000000


--------------------------------------------------------------------------------------------------------




--------------------------------------------------------------------------------------------------------


  
 reached required accuracy - stopping structural energy minimisation
 writing wavefunctions
     LOOP+:  VPU time    7.74: CPU time    7.92
  
  
 General timing and accounting informations for this job:
 ========================================================
  
                  Total CPU time used (sec):      204.385
                            User time (sec):      179.383
                          System time (sec):       25.002
                         Elapsed time (sec):      206.694
  
                   Maximum memory used (kb):           0.
                   Average memory used (kb):           0.
  
                          Minor page faults:      3617699
                          Major page faults:           49
                 Voluntary context switches:         3957
