 vasp.5.2.8 07Jul10 complex 
 executed on             LinuxIFC date 2010.11.29  16:10:07
 running on    8 nodes
 distr:  one band on    1 nodes,    8 groups


--------------------------------------------------------------------------------------------------------


 INCAR:
 POTCAR:   PAW_PBE H_h 07Sep2000                  
 POTCAR:   PAW_PBE C_h 20Dec2001                  
 POTCAR:   PAW_PBE O_h 20Dec2001                  
 POTCAR:   PAW_PBE Si_h 08Apr2002                 
 POTCAR:   PAW_PBE H_h 07Sep2000                  
   VRHFIN =H: ultrasoft test                                                    
   LEXCH  = PE                                                                  
   EATOM  =    12.4943 eV,     .9183 Ry                                         
                                                                                
   TITEL  = PAW_PBE H_h 07Sep2000                                               
   LULTRA =        F    use ultrasoft PP ?                                      
   IUNSCR =        0    unscreen: 0-lin 1-nonlin 2-no                           
   RPACOR =     .000    partial core radius                                     
   POMASS =    1.000; ZVAL   =    1.000    mass and valenz                      
   RCORE  =     .800    outmost cutoff radius                                   
   RWIGS  =     .700; RWIGS  =     .370    wigner-seitz radius (au A)           
   ENMAX  =  700.000; ENMIN  =  500.000 eV                                      
   RCLOC  =     .701    cutoff for local pot                                    
   LCOR   =        T    correct aug charges                                     
   LPAW   =        T    paw PP                                                  
   EAUG   = 1000.000                                                            
   RMAX   =    1.606    core radius for proj-oper                               
   RAUG   =    1.000    factor for augmentation sphere                          
   RDEP   =     .817    radius for radial grids                                 
   QCUT   =   -7.783; QGAM   =   15.567    optimization parameters              
                                                                                
   Description                                                                  
     l     E      TYP  RCUT    TYP  RCUT                                        
     0   .000     23   .800                                                     
     0   .500     23   .800                                                     
     1  -.500     23   .800                                                     
  local pseudopotential read in
  atomic valenz-charges read in
  non local Contribution for L=           0  read in
    real space projection operators read in
  non local Contribution for L=           0  read in
    real space projection operators read in
  non local Contribution for L=           1  read in
    real space projection operators read in
    PAW grid and wavefunctions read in
 
   number of l-projection  operators is LMAX  =           3
   number of lm-projection operators is LMMAX =           5
 
 POTCAR:   PAW_PBE C_h 20Dec2001                  
   VRHFIN =C: s2p2                                                              
   LEXCH  = PE                                                                  
   EATOM  =   147.1560 eV,   10.8157 Ry                                         
                                                                                
   TITEL  = PAW_PBE C_h 20Dec2001                                               
   LULTRA =        F    use ultrasoft PP ?                                      
   IUNSCR =        0    unscreen: 0-lin 1-nonlin 2-no                           
   RPACOR =     .000    partial core radius                                     
   POMASS =   12.011; ZVAL   =    4.000    mass and valenz                      
   RCORE  =    1.100    outmost cutoff radius                                   
   RWIGS  =    1.630; RWIGS  =     .863    wigner-seitz radius (au A)           
   ENMAX  =  700.000; ENMIN  =  500.000 eV                                      
   ICORE  =        2    local potential                                         
   LCOR   =        T    correct aug charges                                     
   LPAW   =        T    paw PP                                                  
   EAUG   =  946.768                                                            
   DEXC   =    -.002                                                            
   RMAX   =    1.693    core radius for proj-oper                               
   RAUG   =    1.300    factor for augmentation sphere                          
   RDEP   =    1.162    radius for radial grids                                 
   QCUT   =   -7.383; QGAM   =   14.767    optimization parameters              
                                                                                
   Description                                                                  
     l     E      TYP  RCUT    TYP  RCUT                                        
     0   .000     23  1.100                                                     
     0   .000     23  1.100                                                     
     1   .000     23  1.100                                                     
     1   .000     23  1.100                                                     
     2   .000      7  1.100                                                     
  local pseudopotential read in
  atomic valenz-charges read in
  non local Contribution for L=           0  read in
    real space projection operators read in
  non local Contribution for L=           0  read in
    real space projection operators read in
  non local Contribution for L=           1  read in
    real space projection operators read in
  non local Contribution for L=           1  read in
    real space projection operators read in
    PAW grid and wavefunctions read in
 
   number of l-projection  operators is LMAX  =           4
   number of lm-projection operators is LMMAX =           8
 
 POTCAR:   PAW_PBE O_h 20Dec2001                  
   VRHFIN =O: s2p4                                                              
   LEXCH  = PE                                                                  
   EATOM  =   432.3788 eV,   31.7789 Ry                                         
                                                                                
   TITEL  = PAW_PBE O_h 20Dec2001                                               
   LULTRA =        F    use ultrasoft PP ?                                      
   IUNSCR =        0    unscreen: 0-lin 1-nonlin 2-no                           
   RPACOR =     .000    partial core radius                                     
   POMASS =   16.000; ZVAL   =    6.000    mass and valenz                      
   RCORE  =    1.100    outmost cutoff radius                                   
   RWIGS  =    1.400; RWIGS  =     .741    wigner-seitz radius (au A)           
   ENMAX  =  700.000; ENMIN  =  500.000 eV                                      
   ICORE  =        2    local potential                                         
   LCOR   =        T    correct aug charges                                     
   LPAW   =        T    paw PP                                                  
   EAUG   =  888.804                                                            
   DEXC   =     .000                                                            
   RMAX   =    1.666    core radius for proj-oper                               
   RAUG   =    1.300    factor for augmentation sphere                          
   RDEP   =    1.125    radius for radial grids                                 
   QCUT   =   -7.501; QGAM   =   15.002    optimization parameters              
                                                                                
   Description                                                                  
     l     E      TYP  RCUT    TYP  RCUT                                        
     0   .000     23  1.100                                                     
     0   .000     23  1.100                                                     
     1   .000     23  1.100                                                     
     1   .000     23  1.100                                                     
     2   .000      7  1.100                                                     
  local pseudopotential read in
  atomic valenz-charges read in
  non local Contribution for L=           0  read in
    real space projection operators read in
  non local Contribution for L=           0  read in
    real space projection operators read in
  non local Contribution for L=           1  read in
    real space projection operators read in
  non local Contribution for L=           1  read in
    real space projection operators read in
    PAW grid and wavefunctions read in
 
   number of l-projection  operators is LMAX  =           4
   number of lm-projection operators is LMMAX =           8
 
 POTCAR:   PAW_PBE Si_h 08Apr2002                 
   VRHFIN =Si: s2p2                                                             
   LEXCH  = PE                                                                  
   EATOM  =   103.0669 eV,    7.5752 Ry                                         
                                                                                
   TITEL  = PAW_PBE Si_h 08Apr2002                                              
   LULTRA =        F    use ultrasoft PP ?                                      
   IUNSCR =        1    unscreen: 0-lin 1-nonlin 2-no                           
   RPACOR =    1.300    partial core radius                                     
   POMASS =   28.085; ZVAL   =    4.000    mass and valenz                      
   RCORE  =    1.500    outmost cutoff radius                                   
   RWIGS  =    1.800; RWIGS  =     .953    wigner-seitz radius (au A)           
   ENMAX  =  380.146; ENMIN  =  285.109 eV                                      
   ICORE  =        2    local potential                                         
   LCOR   =        T    correct aug charges                                     
   LPAW   =        T    paw PP                                                  
   EAUG   =  472.845                                                            
   DEXC   =    -.165                                                            
   RMAX   =    2.365    core radius for proj-oper                               
   RAUG   =    1.300    factor for augmentation sphere                          
   RDEP   =    1.543    radius for radial grids                                 
   QCUT   =   -5.286; QGAM   =   10.572    optimization parameters              
                                                                                
   Description                                                                  
     l     E      TYP  RCUT    TYP  RCUT                                        
     0   .000     23  1.500                                                     
     0   .000     23  1.500                                                     
     1   .000     23  1.500                                                     
     1   .000     23  1.500                                                     
     2   .000     23  1.500                                                     
  local pseudopotential read in
  partial core-charges read in
  atomic valenz-charges read in
  non local Contribution for L=           0  read in
    real space projection operators read in
  non local Contribution for L=           0  read in
    real space projection operators read in
  non local Contribution for L=           1  read in
    real space projection operators read in
  non local Contribution for L=           1  read in
    real space projection operators read in
    PAW grid and wavefunctions read in
 
   number of l-projection  operators is LMAX  =           4
   number of lm-projection operators is LMMAX =           8
 

 ----------------------------------------------------------------------------- 
|                                                                             |
|  ADVICE TO THIS USER RUNNING 'VASP/VAMP'   (HEAR YOUR MASTER'S VOICE ...):  |
|                                                                             |
|      You have a (more or less) 'small supercell' and for smaller cells      |
|      it is recommended  to use the reciprocal-space projection scheme!      |
|      The real space optimization is not  efficient for small cells and it   |
|      is also less accurate ...                                              |
|      Therefore set LREAL=.FALSE. in the  INCAR file                         |
|                                                                             |
 ----------------------------------------------------------------------------- 

 Optimization of the real space projectors (new method)

 maximal supplied QI-value         = 47.24
 optimisation between [QCUT,QGAM] = [ 10.87, 21.73] = [ 33.06,132.25] Ry 
 Optimized for a Real-space Cutoff    1.51 Angstroem

   l    n(q)    QCUT    max X(q) W(low)/X(q) W(high)/X(q)  e(spline) 
   0     10    10.866     3.731    0.27E-04    0.86E-04    0.41E-06
   0     10    10.866    30.656    0.21E-03    0.43E-03    0.15E-05
   1      9    10.866     1.946    0.16E-03    0.89E-03    0.11E-05
 Optimization of the real space projectors (new method)

 maximal supplied QI-value         = 34.20
 optimisation between [QCUT,QGAM] = [ 10.60, 21.55] = [ 31.48,130.03] Ry 
 Optimized for a Real-space Cutoff    1.38 Angstroem

   l    n(q)    QCUT    max X(q) W(low)/X(q) W(high)/X(q)  e(spline) 
   0      9    10.603     5.574    0.27E-04    0.55E-04    0.12E-06
   0      9    10.603   107.025    0.13E-03    0.70E-04    0.46E-06
   1      8    10.603     2.524    0.13E-03    0.43E-03    0.54E-06
   1      8    10.603    54.270    0.23E-03    0.88E-03    0.10E-05
 Optimization of the real space projectors (new method)

 maximal supplied QI-value         = 34.20
 optimisation between [QCUT,QGAM] = [ 10.60, 21.55] = [ 31.48,130.03] Ry 
 Optimized for a Real-space Cutoff    1.55 Angstroem

   l    n(q)    QCUT    max X(q) W(low)/X(q) W(high)/X(q)  e(spline) 
   0     10    10.603     3.352    0.48E-04    0.27E-04    0.25E-06
   0     10    10.603   163.154    0.10E-03    0.31E-04    0.97E-06
   1     10    10.603     1.687    0.30E-04    0.10E-03    0.52E-06
   1     10    10.603    41.631    0.15E-03    0.55E-03    0.17E-05
 Optimization of the real space projectors (new method)

 maximal supplied QI-value         = 25.13
 optimisation between [QCUT,QGAM] = [ 10.81, 21.61] = [ 32.71,130.83] Ry 
 Optimized for a Real-space Cutoff    1.16 Angstroem

   l    n(q)    QCUT    max X(q) W(low)/X(q) W(high)/X(q)  e(spline) 
   0      7    10.807    13.202    0.17E-04    0.30E-04    0.96E-08
   0      7    10.807    60.399    0.25E-03    0.28E-04    0.11E-06
   1      7    10.807     7.835    0.78E-04    0.13E-03    0.35E-07
   1      7    10.807    44.729    0.23E-03    0.71E-03    0.15E-06
 PAW_PBE H_h 07Sep2000                  :
 energy of atom  1       EATOM=  -12.4943
 kinetic energy error for atom=    0.0495 (will be added to EATOM!!)
 PAW_PBE C_h 20Dec2001                  :
 energy of atom  2       EATOM= -147.1560
 kinetic energy error for atom=    0.4317 (will be added to EATOM!!)
 PAW_PBE O_h 20Dec2001                  :
 energy of atom  3       EATOM= -432.3788
 kinetic energy error for atom=    3.3842 (will be added to EATOM!!)
 PAW_PBE Si_h 08Apr2002                 :
 energy of atom  4       EATOM= -103.0669
 kinetic energy error for atom=    0.0039 (will be added to EATOM!!)
 
 
 POSCAR: H 4   C 1   O 2   Si 1                  
  positions in direct lattice
  velocities in cartesian coordinates
 exchange correlation table for  LEXCH =        8
   RHO(1)=    0.500       N(1)  =     2000
   RHO(2)=  100.500       N(2)  =     4000
 


--------------------------------------------------------------------------------------------------------


 ion  position               nearest neighbor table
   1  0.472  0.557  0.533-   6 1.00
   2  0.143  0.646  0.533-   8 1.49
   3  0.228  0.451  0.655-   8 1.50
   4  0.228  0.451  0.412-   8 1.50
   5  0.662  0.445  0.533-   7 1.15
   6  0.393  0.617  0.533-   1 1.00   8 1.67
   7  0.763  0.389  0.533-   5 1.15
   8  0.246  0.538  0.533-   2 1.49   4 1.50   3 1.50   6 1.67
 
  LATTYP: Found a simple cubic cell.
 ALAT       =    10.0000000000
  
  Lattice vectors:
  
 A1 = (  10.0000000000,   0.0000000000,   0.0000000000)
 A2 = (   0.0000000000,  10.0000000000,   0.0000000000)
 A3 = (   0.0000000000,   0.0000000000,  10.0000000000)
 Subroutine PRICEL returns:
 Original cell was already a primitive cell.
 

Analysis of symmetry for initial positions (statically):

 Routine SETGRP: Setting up the symmetry group for a 
 simple cubic supercell.


 Subroutine GETGRP returns: Found  2 space group operations
 (whereof  1 operations were pure point group operations)
 out of a pool of 48 trial point group operations.


The static configuration has the point symmetry C_1 .
 The point group associated with its full space group is C_1h.

Analysis of symmetry for dynamics (positions and initial velocities):

 Subroutine DYNSYM returns: Found  2 space group operations
 (whereof  1 operations were pure point group operations)
 out of a pool of  2 trial space group operations
 (whereof  1 operations were pure point group operations)
 and found also     1 'primitive' translations


The dynamic configuration has the point symmetry C_1 .
 The point group associated with its full space group is C_1h.
 
 
 KPOINTS: 1x1x1                                   

Automatic generation of k-mesh.
 
 Subroutine IBZKPT returns following result:
 ===========================================
 
 Found      1 irreducible k-points:
 
 Following reciprocal coordinates:
            Coordinates               Weight
  0.000000  0.000000  0.000000      1.000000
 
 Following cartesian coordinates:
            Coordinates               Weight
  0.000000  0.000000  0.000000      1.000000
 
 
 Subroutine IBZKPT_HF returns following result:
 ==============================================
 
 Found      1 k-points in 1st BZ
 the following      1 k-points will be used (e.g. in the exchange kernel)
 Following reciprocal coordinates:   # in IRBZ
  0.000000  0.000000  0.000000       1


--------------------------------------------------------------------------------------------------------




 Dimension of arrays:
   k-points           NKPTS =      1   k-points in BZ     NKDIM =      1   number of bands    NBANDS=     24
   number of dos      NEDOS =    301   number of ions     NIONS =      8
   non local maximal  LDIM  =      4   non local SUM 2l+1 LMDIM =      8
   total plane-waves  NPLWV = 343000
   max r-space proj   IRMAX =   5443   max aug-charges    IRDMAX=   6645
   dimension x,y,z NGX =    70 NGY =   70 NGZ =   70
   dimension x,y,z NGXF=   140 NGYF=  140 NGZF=  140
   support grid    NGXF=   140 NGYF=  140 NGZF=  140
   ions per type =               4   1   2   1
 NGX,Y,Z   is equivalent  to a cutoff of  11.64, 11.64, 11.64 a.u.
 NGXF,Y,Z  is equivalent  to a cutoff of  23.27, 23.27, 23.27 a.u.


 I would recommend the setting:
   dimension x,y,z NGX =    69 NGY =   69 NGZ =   69
 SYSTEM =  silanolo co                             
 POSCAR =  H 4   C 1   O 2   Si 1                  

 Startparameter for this run:
   NWRITE =      2    write-flag & timer
   PREC   = acc       medium, high low
   ISTART =      0    job   : 0-new  1-cont  2-samecut
   ICHARG =      2    charge: 1-file 2-atom 10-const
   ISPIN  =      1    spin polarized calculation?
   LNONCOLLINEAR =      F non collinear calculations
   LSORBIT =      F    spin-orbit coupling
   INIWAV =      1    electr: 0-lowe 1-rand  2-diag
   LASPH  =      F    aspherical Exc in radial PAW
   METAGGA=      F    non-selfconsistent MetaGGA calc.

 Electronic Relaxation 1
   ENCUT  =  450.0 eV  33.07 Ry    5.75 a.u.  17.30 17.30 17.30*2*pi/ulx,y,z
   ENINI  =  450.0     initial cutoff
   ENAUG  = 1000.0 eV  augmentation charge cutoff
   NELM   =     60;   NELMIN=  2; NELMDL=-12     # of ELM steps 
   EDIFF  = 0.3E-09   stopping-criterion for ELM
   LREAL  =      T    real-space projection
   LCOMPAT=      F    compatible to vasp.4.4
   LREAL_COMPAT= F    compatible to vasp.4.5.1-3
   GGA_COMPAT  = T    GGA compatible to vasp.4.4-vasp.4.6
   LMAXPAW     = -100 max onsite density
   LMAXMIX     =    2 max onsite mixed and CHGCAR
   VOSKOWN=      0    Vosko Wilk Nusair interpolation
   ROPT   =   -0.00025  -0.00025  -0.00025  -0.00025
 Ionic relaxation
   EDIFFG = 0.3E-08   stopping-criterion for IOM
   NSW    =    100    number of steps for IOM
   NBLOCK =      1;   KBLOCK =    100    inner block; outer block 
   IBRION =      6    ionic relax: 0-MD 1-quasi-New 2-CG
   NFREE  =      2    steps in history (QN), initial steepest desc. (CG)
   ISIF   =      2    stress and relaxation
   IWAVPR =     11    prediction:  0-non 1-charg 2-wave 3-comb
   ISYM   =      2    0-nonsym 1-usesym 2-fastsym
   LCORR  =      T    Harris-Foulkes like correction to forces

   POTIM  = 0.0030    time-step for ionic-motion
   TEIN   =    0.0    initial temperature
   TEBEG  =    0.0;   TEEND  =   0.0 temperature during run
   SMASS  =  -3.00    Nose mass-parameter (am)
   estimated Nose-frequenzy (Omega)   =  0.10E-29 period in steps =****** mass=  -0.229E-26a.u.
   NPACO  =    256;   APACO  = 16.0  distance and # of slots for P.C.
   PSTRESS=    0.0 pullay stress

  Mass of Ions in am
   POMASS =   1.00 12.01 16.00 28.09
  Ionic Valenz
   ZVAL   =   1.00  4.00  6.00  4.00
  Atomic Wigner-Seitz radii
   RWIGS  =  -1.00 -1.00 -1.00 -1.00
  virtual crystal weights 
   VCA    =   1.00  1.00  1.00  1.00
   NELECT =      24.0000    total number of electrons
   NUPDOWN=      -1.0000    fix difference up-down

 DOS related values:
   EMIN   =  10.00;   EMAX   =-10.00  energy-range for DOS
   EFERMI =   0.00
   ISMEAR =     0;   SIGMA  =   0.10  broadening in eV -4-tet -1-fermi 0-gaus

 Electronic relaxation 2 (details)
   IALGO  =     48    algorithm
   LDIAG  =      T    sub-space diagonalisation (order eigenvalues)
   LSUBROT=      T    optimize rotation matrix (better conditioning)
   IMIX   =      4    mixing-type and parameters
     AMIX     =   0.40;   BMIX     =  1.00
     AMIX_MAG =   1.60;   BMIX_MAG =  1.00
     AMIN     =   0.10
     WC   =   100.;   INIMIX=   1;  MIXPRE=   1

 Intra band minimization:
   WEIMIN = 0.0010     energy-eigenvalue tresh-hold
   EBREAK =  0.40E-11  absolut break condition
   DEPER  =   0.30     relativ break condition  

   TIME   =   0.40     timestep for ELM

  volume/ion in A,a.u.               =     125.00       843.54
  Fermi-wavevector in a.u.,A,eV,Ry     =   0.472221  0.892368  3.033999  0.222993
  Thomas-Fermi vector in A             =   1.465300
 
 Write flags
   LWAVE  =      T    write WAVECAR
   LCHARG =      T    write CHGCAR
   LVTOT  =      F    write LOCPOT, total local potential
   LVHAR  =      F    write LOCPOT, Hartree potential only
   LELF   =      F    write electronic localiz. function (ELF)
   LORBIT =      0    0 simple, 1 ext, 2 COOP (PROOUT)


 Dipole corrections
   LMONO  =      F    monopole corrections only (constant potential shift)
   LDIPOL =      F    correct potential (dipole corrections)
   IDIPOL =      0    1-x, 2-y, 3-z, 4-all directions 
   EPSILON=  1.0000000 bulk dielectric constant

 Exchange correlation treatment:
   GGA     =    --    GGA type
   LEXCH   =     8    internal setting for exchange type
   VOSKOWN=      0    Vosko Wilk Nusair interpolation
   LHFCALC =     F    Hartree Fock is set to
   LHFONE  =     F    Hartree Fock one center treatment
   AEXX    =    0.0000 exact exchange contribution

 Linear response parameters
   LEPSILON=     F    determine dielectric tensor
   LRPA    =     F    only Hartree local field effects (RPA)
   LNABLA  =     F    use nabla operator in PAW spheres
   LVEL    =     F    velocity operator in full k-point grid
   LINTERFAST=   F  fast interpolation
   KINTER  =     0    interpolate to denser k-point grid
   CSHIFT  =0.1000    complex shift for real part using Kramers Kronig
   OMEGAMAX=  -1.0    maximum frequency
   RTIME   =    0.100 relaxation time in fs

 Orbital magnetization related:
   ORBITALMAG=     F  switch on orbital magnetization
   LCHIMAG   =     F  perturbation theory with respect to B field



--------------------------------------------------------------------------------------------------------


 finite differences with symmetry
 charge density and potential will be updated during run
 non-spin polarized calculation
 RMM-DIIS sequential band-by-band
 perform sub-space diagonalisation
    before iterative eigenvector-optimisation
 modified Broyden-mixing scheme, WC =      100.0
 initial mixing is a Kerker type mixing with AMIX =  0.4000 and BMIX =      1.0000
 Hartree-type preconditioning will be used
 using additional bands           12
 real space projection scheme for non local part
 use partial core corrections
 calculate Harris-corrections to forces 
   (improved forces if not selfconsistent)
 use gradient corrections 
 use of overlap-Matrix (Vanderbilt PP)
 Gauss-broadening in eV      SIGMA  =   0.10


--------------------------------------------------------------------------------------------------------


  energy-cutoff  :      450.00
  volume of cell :     1000.00
      direct lattice vectors                 reciprocal lattice vectors
    10.000000000  0.000000000  0.000000000     0.100000000  0.000000000  0.000000000
     0.000000000 10.000000000  0.000000000     0.000000000  0.100000000  0.000000000
     0.000000000  0.000000000 10.000000000     0.000000000  0.000000000  0.100000000

  length of vectors
    10.000000000 10.000000000 10.000000000     0.100000000  0.100000000  0.100000000


 
 k-points in units of 2pi/SCALE and weight: 1x1x1                                   
   0.00000000  0.00000000  0.00000000       1.000
 
 k-points in reciprocal lattice and weights: 1x1x1                                   
   0.00000000  0.00000000  0.00000000       1.000
 
 position of ions in fractional coordinates (direct lattice) 
   0.47230924  0.55655568  0.53333333
   0.14305037  0.64563051  0.53333333
   0.22830716  0.45111726  0.65453036
   0.22830716  0.45111726  0.41213630
   0.66242097  0.44527098  0.53333333
   0.39334323  0.61722533  0.53333333
   0.76278840  0.38876675  0.53333333
   0.24607307  0.53769497  0.53333333
 
 position of ions in cartesian coordinates  (Angst):
   4.72309244  5.56555676  5.33333333
   1.43050371  6.45630510  5.33333333
   2.28307161  4.51117255  6.54530362
   2.28307161  4.51117255  4.12136305
   6.62420973  4.45270977  5.33333333
   3.93343232  6.17225332  5.33333333
   7.62788403  3.88766746  5.33333333
   2.46073065  5.37694965  5.33333333
 


--------------------------------------------------------------------------------------------------------


 k-point  1 :  0.00000.00000.0000  plane waves:   21823

 maximum and minimum number of plane-waves per node :   21823  21823

 maximum number of plane-waves:   21823
 maximal index in each direction: 
   IXMAX= 17   IYMAX= 17   IZMAX= 17
   IXMIN=-17   IYMIN=-17   IZMIN=-17

 NGX is ok and might be reduce to  70
 NGY is ok and might be reduce to  70
 NGZ is ok and might be reduce to  70

 serial   3D FFT for wavefunctions
 parallel 3D FFT for charge:
    minimum data exchange during FFTs selected (reduces bandwidth)


 total amount of memory used by VASP on root node  86595. kBytes
========================================================================

   base      :    30000. kBytes
   nonlr-proj:     2725. kBytes
   fftplans  :    13314. kBytes
   grid      :    39482. kBytes
   one-center:       24. kBytes
   wavefun   :     1050. kBytes
 
 Broyden mixing: mesh for mixing (old mesh)
   NGX = 35   NGY = 35   NGZ = 35
  (NGX  =140   NGY  =140   NGZ  =140)
  gives a total of  42875 points

 initial charge density was supplied:
 charge density of overlapping atoms calculated
 number of electron   24.0000000 magnetization 
 keeping initial charge density in first step


--------------------------------------------------------------------------------------------------------


 Maximum index for non-local projection operator         5230
 Maximum index for augmentation-charges          773 (set IRDMAX)


--------------------------------------------------------------------------------------------------------


 First call to EWALD:  gamma=   0.177
 Maximum number of real-space cells 3x 3x 3
 Maximum number of reciprocal cells 3x 3x 3

    FEWALD:  cpu time    0.00: real time    0.00
   RESPFUN:  cpu time    0.00: real time    0.00


----------------------------------------- Iteration    1(   1)  ---------------------------------------


    POTLOK:  cpu time    1.20: real time    1.20
    SETDIJ:  cpu time    0.00: real time    0.00
    EDDIAG:  cpu time    0.35: real time    0.35
  RMM-DIIS:  cpu time    0.83: real time    0.83
    ORTHCH:  cpu time    0.02: real time    0.02
       DOS:  cpu time    0.00: real time    0.00
    --------------------------------------------
      LOOP:  cpu time    2.40: real time    2.41

 eigenvalue-minimisations  :    24
 total energy-change (2. order) : 0.3166432E+03  (-0.3400836E+03)
 number of electron   24.0000000 magnetization 
 augmentation part    24.0000000 magnetization 

 Free energy of the ion-electron system (eV)
  ---------------------------------------------------
  alpha Z        PSCENC =         1.35898928
  Ewald energy   TEWEN  =       279.01270898
  -1/2 Hartree   DENC   =     -1192.40052274
  -exchange  EXHF       =         0.00000000
  -V(xc)+E(xc)   XCENC  =        41.56498880
  PAW double counting   =       345.99746249     -310.10989111
  entropy T*S    EENTRO =        -0.00036614
  eigenvalues    EBANDS =        -6.33590642
  atomic energy  EATOM  =      1157.55570674
  ---------------------------------------------------
  free energy    TOTEN  =       316.64316988 eV

  energy without entropy =      316.64353602  energy(sigma->0) =      316.64335295


--------------------------------------------------------------------------------------------------------




----------------------------------------- Iteration    1(   2)  ---------------------------------------


    EDDIAG:  cpu time    0.37: real time    0.37
  RMM-DIIS:  cpu time    0.82: real time    0.82
    ORTHCH:  cpu time    0.02: real time    0.02
       DOS:  cpu time    0.00: real time    0.00
    --------------------------------------------
      LOOP:  cpu time    1.21: real time    1.22

 eigenvalue-minimisations  :    24
 total energy-change (2. order) :-0.1271751E+03  (-0.1406381E+03)
 number of electron   24.0000000 magnetization 
 augmentation part    24.0000000 magnetization 

 Free energy of the ion-electron system (eV)
  ---------------------------------------------------
  alpha Z        PSCENC =         1.35898928
  Ewald energy   TEWEN  =       279.01270898
  -1/2 Hartree   DENC   =     -1192.40052274
  -exchange  EXHF       =         0.00000000
  -V(xc)+E(xc)   XCENC  =        41.56498880
  PAW double counting   =       345.99746249     -310.10989111
  entropy T*S    EENTRO =        -0.05162095
  eigenvalues    EBANDS =      -133.45974305
  atomic energy  EATOM  =      1157.55570674
  ---------------------------------------------------
  free energy    TOTEN  =       189.46807843 eV

  energy without entropy =      189.51969938  energy(sigma->0) =      189.49388891


--------------------------------------------------------------------------------------------------------




----------------------------------------- Iteration    1(   3)  ---------------------------------------


    EDDIAG:  cpu time    0.35: real time    0.35
  RMM-DIIS:  cpu time    0.82: real time    0.82
    ORTHCH:  cpu time    0.02: real time    0.02
       DOS:  cpu time    0.00: real time    0.00
    --------------------------------------------
      LOOP:  cpu time    1.19: real time    1.19

 eigenvalue-minimisations  :    24
 total energy-change (2. order) :-0.5906505E+02  (-0.7755649E+02)
 number of electron   24.0000000 magnetization 
 augmentation part    24.0000000 magnetization 

 Free energy of the ion-electron system (eV)
  ---------------------------------------------------
  alpha Z        PSCENC =         1.35898928
  Ewald energy   TEWEN  =       279.01270898
  -1/2 Hartree   DENC   =     -1192.40052274
  -exchange  EXHF       =         0.00000000
  -V(xc)+E(xc)   XCENC  =        41.56498880
  PAW double counting   =       345.99746249     -310.10989111
  entropy T*S    EENTRO =        -0.08798583
  eigenvalues    EBANDS =      -192.48842543
  atomic energy  EATOM  =      1157.55570674
  ---------------------------------------------------
  free energy    TOTEN  =       130.40303117 eV

  energy without entropy =      130.49101700  energy(sigma->0) =      130.44702408


--------------------------------------------------------------------------------------------------------




----------------------------------------- Iteration    1(   4)  ---------------------------------------


    EDDIAG:  cpu time    0.35: real time    0.35
  RMM-DIIS:  cpu time    0.82: real time    0.82
    ORTHCH:  cpu time    0.02: real time    0.02
       DOS:  cpu time    0.00: real time    0.00
    --------------------------------------------
      LOOP:  cpu time    1.19: real time    1.19

 eigenvalue-minimisations  :    24
 total energy-change (2. order) :-0.7456099E+02  (-0.6464260E+02)
 number of electron   24.0000000 magnetization 
 augmentation part    24.0000000 magnetization 

 Free energy of the ion-electron system (eV)
  ---------------------------------------------------
  alpha Z        PSCENC =         1.35898928
  Ewald energy   TEWEN  =       279.01270898
  -1/2 Hartree   DENC   =     -1192.40052274
  -exchange  EXHF       =         0.00000000
  -V(xc)+E(xc)   XCENC  =        41.56498880
  PAW double counting   =       345.99746249     -310.10989111
  entropy T*S    EENTRO =         0.00000000
  eigenvalues    EBANDS =      -267.13740246
  atomic energy  EATOM  =      1157.55570674
  ---------------------------------------------------
  free energy    TOTEN  =        55.84203998 eV

  energy without entropy =       55.84203998  energy(sigma->0) =       55.84203998


--------------------------------------------------------------------------------------------------------




----------------------------------------- Iteration    1(   5)  ---------------------------------------


    EDDIAG:  cpu time    0.35: real time    0.35
  RMM-DIIS:  cpu time    0.82: real time    0.82
    ORTHCH:  cpu time    0.02: real time    0.02
       DOS:  cpu time    0.00: real time    0.00
    --------------------------------------------
      LOOP:  cpu time    1.19: real time    1.19

 eigenvalue-minimisations  :    24
 total energy-change (2. order) :-0.4477150E+02  (-0.4120397E+02)
 number of electron   24.0000000 magnetization 
 augmentation part    24.0000000 magnetization 

 Free energy of the ion-electron system (eV)
  ---------------------------------------------------
  alpha Z        PSCENC =         1.35898928
  Ewald energy   TEWEN  =       279.01270898
  -1/2 Hartree   DENC   =     -1192.40052274
  -exchange  EXHF       =         0.00000000
  -V(xc)+E(xc)   XCENC  =        41.56498880
  PAW double counting   =       345.99746249     -310.10989111
  entropy T*S    EENTRO =         0.00000000
  eigenvalues    EBANDS =      -311.90889759
  atomic energy  EATOM  =      1157.55570674
  ---------------------------------------------------
  free energy    TOTEN  =        11.07054484 eV

  energy without entropy =       11.07054484  energy(sigma->0) =       11.07054484


--------------------------------------------------------------------------------------------------------




----------------------------------------- Iteration    1(   6)  ---------------------------------------


    EDDIAG:  cpu time    0.35: real time    0.35
  RMM-DIIS:  cpu time    0.81: real time    0.81
    ORTHCH:  cpu time    0.02: real time    0.02
       DOS:  cpu time    0.00: real time    0.00
    --------------------------------------------
      LOOP:  cpu time    1.18: real time    1.18

 eigenvalue-minimisations  :    24
 total energy-change (2. order) :-0.3089435E+02  (-0.2711457E+02)
 number of electron   24.0000000 magnetization 
 augmentation part    24.0000000 magnetization 

 Free energy of the ion-electron system (eV)
  ---------------------------------------------------
  alpha Z        PSCENC =         1.35898928
  Ewald energy   TEWEN  =       279.01270898
  -1/2 Hartree   DENC   =     -1192.40052274
  -exchange  EXHF       =         0.00000000
  -V(xc)+E(xc)   XCENC  =        41.56498880
  PAW double counting   =       345.99746249     -310.10989111
  entropy T*S    EENTRO =         0.00000000
  eigenvalues    EBANDS =      -342.80324444
  atomic energy  EATOM  =      1157.55570674
  ---------------------------------------------------
  free energy    TOTEN  =       -19.82380200 eV

  energy without entropy =      -19.82380200  energy(sigma->0) =      -19.82380200


--------------------------------------------------------------------------------------------------------




----------------------------------------- Iteration    1(   7)  ---------------------------------------


    EDDIAG:  cpu time    0.35: real time    0.35
  RMM-DIIS:  cpu time    0.83: real time    0.82
    ORTHCH:  cpu time    0.02: real time    0.02
       DOS:  cpu time    0.00: real time    0.00
    --------------------------------------------
      LOOP:  cpu time    1.19: real time    1.20

 eigenvalue-minimisations  :    24
 total energy-change (2. order) :-0.1578999E+02  (-0.1439592E+02)
 number of electron   24.0000000 magnetization 
 augmentation part    24.0000000 magnetization 

 Free energy of the ion-electron system (eV)
  ---------------------------------------------------
  alpha Z        PSCENC =         1.35898928
  Ewald energy   TEWEN  =       279.01270898
  -1/2 Hartree   DENC   =     -1192.40052274
  -exchange  EXHF       =         0.00000000
  -V(xc)+E(xc)   XCENC  =        41.56498880
  PAW double counting   =       345.99746249     -310.10989111
  entropy T*S    EENTRO =         0.00000000
  eigenvalues    EBANDS =      -358.59322979
  atomic energy  EATOM  =      1157.55570674
  ---------------------------------------------------
  free energy    TOTEN  =       -35.61378735 eV

  energy without entropy =      -35.61378735  energy(sigma->0) =      -35.61378735


--------------------------------------------------------------------------------------------------------




----------------------------------------- Iteration    1(   8)  ---------------------------------------


    EDDIAG:  cpu time    0.35: real time    0.35
  RMM-DIIS:  cpu time    0.82: real time    0.82
    ORTHCH:  cpu time    0.02: real time    0.02
       DOS:  cpu time    0.00: real time    0.00
    --------------------------------------------
      LOOP:  cpu time    1.19: real time    1.19

 eigenvalue-minimisations  :    24
 total energy-change (2. order) :-0.5241045E+01  (-0.4420812E+01)
 number of electron   24.0000000 magnetization 
 augmentation part    24.0000000 magnetization 

 Free energy of the ion-electron system (eV)
  ---------------------------------------------------
  alpha Z        PSCENC =         1.35898928
  Ewald energy   TEWEN  =       279.01270898
  -1/2 Hartree   DENC   =     -1192.40052274
  -exchange  EXHF       =         0.00000000
  -V(xc)+E(xc)   XCENC  =        41.56498880
  PAW double counting   =       345.99746249     -310.10989111
  entropy T*S    EENTRO =         0.00000000
  eigenvalues    EBANDS =      -363.83427490
  atomic energy  EATOM  =      1157.55570674
  ---------------------------------------------------
  free energy    TOTEN  =       -40.85483246 eV

  energy without entropy =      -40.85483246  energy(sigma->0) =      -40.85483246


--------------------------------------------------------------------------------------------------------




----------------------------------------- Iteration    1(   9)  ---------------------------------------


    EDDIAG:  cpu time    0.35: real time    0.35
  RMM-DIIS:  cpu time    1.50: real time    1.50
    ORTHCH:  cpu time    0.02: real time    0.02
       DOS:  cpu time    0.00: real time    0.00
    --------------------------------------------
      LOOP:  cpu time    1.87: real time    1.87

 eigenvalue-minimisations  :    50
 total energy-change (2. order) :-0.2207810E+01  (-0.2037998E+01)
 number of electron   24.0000000 magnetization 
 augmentation part    24.0000000 magnetization 

 Free energy of the ion-electron system (eV)
  ---------------------------------------------------
  alpha Z        PSCENC =         1.35898928
  Ewald energy   TEWEN  =       279.01270898
  -1/2 Hartree   DENC   =     -1192.40052274
  -exchange  EXHF       =         0.00000000
  -V(xc)+E(xc)   XCENC  =        41.56498880
  PAW double counting   =       345.99746249     -310.10989111
  entropy T*S    EENTRO =         0.00000000
  eigenvalues    EBANDS =      -366.04208505
  atomic energy  EATOM  =      1157.55570674
  ---------------------------------------------------
  free energy    TOTEN  =       -43.06264261 eV

  energy without entropy =      -43.06264261  energy(sigma->0) =      -43.06264261


--------------------------------------------------------------------------------------------------------




----------------------------------------- Iteration    1(  10)  ---------------------------------------


    EDDIAG:  cpu time    0.35: real time    0.35
  RMM-DIIS:  cpu time    1.63: real time    1.63
    ORTHCH:  cpu time    0.02: real time    0.02
       DOS:  cpu time    0.00: real time    0.00
    --------------------------------------------
      LOOP:  cpu time    1.99: real time    2.00

 eigenvalue-minimisations  :    56
 total energy-change (2. order) :-0.3319611E+00  (-0.2814003E+00)
 number of electron   24.0000000 magnetization 
 augmentation part    24.0000000 magnetization 

 Free energy of the ion-electron system (eV)
  ---------------------------------------------------
  alpha Z        PSCENC =         1.35898928
  Ewald energy   TEWEN  =       279.01270898
  -1/2 Hartree   DENC   =     -1192.40052274
  -exchange  EXHF       =         0.00000000
  -V(xc)+E(xc)   XCENC  =        41.56498880
  PAW double counting   =       345.99746249     -310.10989111
  entropy T*S    EENTRO =         0.00000000
  eigenvalues    EBANDS =      -366.37404615
  atomic energy  EATOM  =      1157.55570674
  ---------------------------------------------------
  free energy    TOTEN  =       -43.39460372 eV

  energy without entropy =      -43.39460372  energy(sigma->0) =      -43.39460372


--------------------------------------------------------------------------------------------------------




----------------------------------------- Iteration    1(  11)  ---------------------------------------


    EDDIAG:  cpu time    0.36: real time    0.35
  RMM-DIIS:  cpu time    1.60: real time    1.60
    ORTHCH:  cpu time    0.02: real time    0.02
       DOS:  cpu time    0.00: real time    0.00
    --------------------------------------------
      LOOP:  cpu time    1.97: real time    1.97

 eigenvalue-minimisations  :    55
 total energy-change (2. order) :-0.1162741E-01  (-0.8616608E-02)
 number of electron   24.0000000 magnetization 
 augmentation part    24.0000000 magnetization 

 Free energy of the ion-electron system (eV)
  ---------------------------------------------------
  alpha Z        PSCENC =         1.35898928
  Ewald energy   TEWEN  =       279.01270898
  -1/2 Hartree   DENC   =     -1192.40052274
  -exchange  EXHF       =         0.00000000
  -V(xc)+E(xc)   XCENC  =        41.56498880
  PAW double counting   =       345.99746249     -310.10989111
  entropy T*S    EENTRO =         0.00000000
  eigenvalues    EBANDS =      -366.38567356
  atomic energy  EATOM  =      1157.55570674
  ---------------------------------------------------
  free energy    TOTEN  =       -43.40623112 eV

  energy without entropy =      -43.40623112  energy(sigma->0) =      -43.40623112


--------------------------------------------------------------------------------------------------------




----------------------------------------- Iteration    1(  12)  ---------------------------------------


    EDDIAG:  cpu time    0.35: real time    0.35
  RMM-DIIS:  cpu time    1.61: real time    1.61
    ORTHCH:  cpu time    0.02: real time    0.02
       DOS:  cpu time    0.00: real time    0.00
    CHARGE:  cpu time    0.34: real time    0.34
    MIXING:  cpu time    0.04: real time    0.03
    --------------------------------------------
      LOOP:  cpu time    2.35: real time    2.35

 eigenvalue-minimisations  :    55
 total energy-change (2. order) :-0.1772045E-02  (-0.1436449E-02)
 number of electron   24.0000000 magnetization 
 augmentation part    -0.0583445 magnetization 

 Broyden mixing:
  rms(total) = 0.10458E+01    rms(broyden)= 0.10376E+01
  rms(prec ) = 0.13067E+01
  weight for this iteration     100.00

 Free energy of the ion-electron system (eV)
  ---------------------------------------------------
  alpha Z        PSCENC =         1.35898928
  Ewald energy   TEWEN  =       279.01270898
  -1/2 Hartree   DENC   =     -1192.40052274
  -exchange  EXHF       =         0.00000000
  -V(xc)+E(xc)   XCENC  =        41.56498880
  PAW double counting   =       345.99746249     -310.10989111
  entropy T*S    EENTRO =         0.00000000
  eigenvalues    EBANDS =      -366.38744560
  atomic energy  EATOM  =      1157.55570674
  ---------------------------------------------------
  free energy    TOTEN  =       -43.40800317 eV

  energy without entropy =      -43.40800317  energy(sigma->0) =      -43.40800317


--------------------------------------------------------------------------------------------------------




----------------------------------------- Iteration    1(  13)  ---------------------------------------


    POTLOK:  cpu time    1.19: real time    1.19
    SETDIJ:  cpu time    0.00: real time    0.00
    EDDIAG:  cpu time    0.36: real time    0.35
  RMM-DIIS:  cpu time    1.39: real time    1.39
    ORTHCH:  cpu time    0.02: real time    0.02
       DOS:  cpu time    0.00: real time    0.00
    CHARGE:  cpu time    0.34: real time    0.34
    MIXING:  cpu time    0.04: real time    0.03
    --------------------------------------------
      LOOP:  cpu time    3.33: real time    3.33

 eigenvalue-minimisations  :    48
 total energy-change (2. order) : 0.1940562E+01  (-0.3787795E+00)
 number of electron   24.0000000 magnetization 
 augmentation part    -0.0799958 magnetization 

 Broyden mixing:
  rms(total) = 0.56380E+00    rms(broyden)= 0.56289E+00
  rms(prec ) = 0.68944E+00
  weight for this iteration     100.00

 eigenvalues of (default mixing * dielectric matrix)
  average eigenvalue GAMMA=   1.5143
  1.5143

 Free energy of the ion-electron system (eV)
  ---------------------------------------------------
  alpha Z        PSCENC =         1.35898928
  Ewald energy   TEWEN  =       279.01270898
  -1/2 Hartree   DENC   =     -1221.96397744
  -exchange  EXHF       =         0.00000000
  -V(xc)+E(xc)   XCENC  =        43.59013341
  PAW double counting   =       391.01805413     -354.99720634
  entropy T*S    EENTRO =         0.00000000
  eigenvalues    EBANDS =      -337.04185023
  atomic energy  EATOM  =      1157.55570674
  ---------------------------------------------------
  free energy    TOTEN  =       -41.46744148 eV

  energy without entropy =      -41.46744148  energy(sigma->0) =      -41.46744148


--------------------------------------------------------------------------------------------------------




----------------------------------------- Iteration    1(  14)  ---------------------------------------


    POTLOK:  cpu time    1.19: real time    1.19
    SETDIJ:  cpu time    0.00: real time    0.00
    EDDIAG:  cpu time    0.35: real time    0.35
  RMM-DIIS:  cpu time    1.38: real time    1.39
    ORTHCH:  cpu time    0.02: real time    0.02
       DOS:  cpu time    0.00: real time    0.00
    CHARGE:  cpu time    0.34: real time    0.34
    MIXING:  cpu time    0.03: real time    0.03
    --------------------------------------------
      LOOP:  cpu time    3.33: real time    3.33

 eigenvalue-minimisations  :    48
 total energy-change (2. order) : 0.5226901E+00  (-0.8759215E-01)
 number of electron   24.0000000 magnetization 
 augmentation part    -0.0825335 magnetization 

 Broyden mixing:
  rms(total) = 0.21981E+00    rms(broyden)= 0.21962E+00
  rms(prec ) = 0.27856E+00
  weight for this iteration     100.00

 eigenvalues of (default mixing * dielectric matrix)
  average eigenvalue GAMMA=   1.6810
  2.2135  1.1485

 Free energy of the ion-electron system (eV)
  ---------------------------------------------------
  alpha Z        PSCENC =         1.35898928
  Ewald energy   TEWEN  =       279.01270898
  -1/2 Hartree   DENC   =     -1237.74589077
  -exchange  EXHF       =         0.00000000
  -V(xc)+E(xc)   XCENC  =        44.79728553
  PAW double counting   =       413.28858303     -376.96212595
  entropy T*S    EENTRO =         0.00000000
  eigenvalues    EBANDS =      -322.25000819
  atomic energy  EATOM  =      1157.55570674
  ---------------------------------------------------
  free energy    TOTEN  =       -40.94475135 eV

  energy without entropy =      -40.94475135  energy(sigma->0) =      -40.94475135


--------------------------------------------------------------------------------------------------------




----------------------------------------- Iteration    1(  15)  ---------------------------------------


    POTLOK:  cpu time    1.19: real time    1.19
    SETDIJ:  cpu time    0.00: real time    0.00
    EDDIAG:  cpu time    0.35: real time    0.35
  RMM-DIIS:  cpu time    1.39: real time    1.39
    ORTHCH:  cpu time    0.02: real time    0.02
       DOS:  cpu time    0.00: real time    0.00
    CHARGE:  cpu time    0.34: real time    0.34
    MIXING:  cpu time    0.03: real time    0.04
    --------------------------------------------
      LOOP:  cpu time    3.32: real time    3.33

 eigenvalue-minimisations  :    48
 total energy-change (2. order) : 0.1022134E+00  (-0.2711827E-01)
 number of electron   24.0000000 magnetization 
 augmentation part    -0.0840820 magnetization 

 Broyden mixing:
  rms(total) = 0.41018E-01    rms(broyden)= 0.40946E-01
  rms(prec ) = 0.78134E-01
  weight for this iteration     100.00

 eigenvalues of (default mixing * dielectric matrix)
  average eigenvalue GAMMA=   1.4605
  2.2706  1.2155  0.8954

 Free energy of the ion-electron system (eV)
  ---------------------------------------------------
  alpha Z        PSCENC =         1.35898928
  Ewald energy   TEWEN  =       279.01270898
  -1/2 Hartree   DENC   =     -1245.37891269
  -exchange  EXHF       =         0.00000000
  -V(xc)+E(xc)   XCENC  =        45.42275823
  PAW double counting   =       422.08529659     -385.54370955
  entropy T*S    EENTRO =         0.00000000
  eigenvalues    EBANDS =      -315.35537555
  atomic energy  EATOM  =      1157.55570674
  ---------------------------------------------------
  free energy    TOTEN  =       -40.84253798 eV

  energy without entropy =      -40.84253798  energy(sigma->0) =      -40.84253798


--------------------------------------------------------------------------------------------------------




----------------------------------------- Iteration    1(  16)  ---------------------------------------


    POTLOK:  cpu time    1.20: real time    1.19
    SETDIJ:  cpu time    0.00: real time    0.00
    EDDIAG:  cpu time    0.35: real time    0.35
  RMM-DIIS:  cpu time    1.48: real time    1.48
    ORTHCH:  cpu time    0.02: real time    0.02
       DOS:  cpu time    0.00: real time    0.00
    CHARGE:  cpu time    0.34: real time    0.34
    MIXING:  cpu time    0.04: real time    0.04
    --------------------------------------------
      LOOP:  cpu time    3.43: real time    3.43

 eigenvalue-minimisations  :    50
 total energy-change (2. order) : 0.6587254E-02  (-0.2510612E-02)
 number of electron   24.0000000 magnetization 
 augmentation part    -0.0842108 magnetization 

 Broyden mixing:
  rms(total) = 0.27055E-01    rms(broyden)= 0.27042E-01
  rms(prec ) = 0.56941E-01
  weight for this iteration     100.00

 eigenvalues of (default mixing * dielectric matrix)
  average eigenvalue GAMMA=   1.7216
  2.4535  2.4535  1.1320  0.8474

 Free energy of the ion-electron system (eV)
  ---------------------------------------------------
  alpha Z        PSCENC =         1.35898928
  Ewald energy   TEWEN  =       279.01270898
  -1/2 Hartree   DENC   =     -1246.33842198
  -exchange  EXHF       =         0.00000000
  -V(xc)+E(xc)   XCENC  =        45.47713717
  PAW double counting   =       422.19423859     -385.62098848
  entropy T*S    EENTRO =         0.00000000
  eigenvalues    EBANDS =      -314.47532101
  atomic energy  EATOM  =      1157.55570674
  ---------------------------------------------------
  free energy    TOTEN  =       -40.83595072 eV

  energy without entropy =      -40.83595072  energy(sigma->0) =      -40.83595072


--------------------------------------------------------------------------------------------------------




----------------------------------------- Iteration    1(  17)  ---------------------------------------


    POTLOK:  cpu time    1.18: real time    1.19
    SETDIJ:  cpu time    0.00: real time    0.00
    EDDIAG:  cpu time    0.35: real time    0.35
  RMM-DIIS:  cpu time    1.39: real time    1.38
    ORTHCH:  cpu time    0.02: real time    0.02
       DOS:  cpu time    0.00: real time    0.00
    CHARGE:  cpu time    0.34: real time    0.33
    MIXING:  cpu time    0.04: real time    0.04
    --------------------------------------------
      LOOP:  cpu time    3.32: real time    3.32

 eigenvalue-minimisations  :    48
 total energy-change (2. order) : 0.7089433E-02  (-0.1331652E-02)
 number of electron   24.0000000 magnetization 
 augmentation part    -0.0849612 magnetization 

 Broyden mixing:
  rms(total) = 0.12806E-01    rms(broyden)= 0.12794E-01
  rms(prec ) = 0.29026E-01
  weight for this iteration     100.00

 eigenvalues of (default mixing * dielectric matrix)
  average eigenvalue GAMMA=   1.6248
  2.4932  2.1128  0.8506  1.3338  1.3338

 Free energy of the ion-electron system (eV)
  ---------------------------------------------------
  alpha Z        PSCENC =         1.35898928
  Ewald energy   TEWEN  =       279.01270898
  -1/2 Hartree   DENC   =     -1247.73361503
  -exchange  EXHF       =         0.00000000
  -V(xc)+E(xc)   XCENC  =        45.51111946
  PAW double counting   =       421.60441596     -385.00123190
  entropy T*S    EENTRO =         0.00000000
  eigenvalues    EBANDS =      -313.13695477
  atomic energy  EATOM  =      1157.55570674
  ---------------------------------------------------
  free energy    TOTEN  =       -40.82886129 eV

  energy without entropy =      -40.82886129  energy(sigma->0) =      -40.82886129


--------------------------------------------------------------------------------------------------------




----------------------------------------- Iteration    1(  18)  ---------------------------------------


    POTLOK:  cpu time    1.18: real time    1.18
    SETDIJ:  cpu time    0.00: real time    0.00
    EDDIAG:  cpu time    0.35: real time    0.35
  RMM-DIIS:  cpu time    1.39: real time    1.39
    ORTHCH:  cpu time    0.02: real time    0.02
       DOS:  cpu time    0.00: real time    0.00
    CHARGE:  cpu time    0.34: real time    0.34
    MIXING:  cpu time    0.04: real time    0.04
    --------------------------------------------
      LOOP:  cpu time    3.32: real time    3.33

 eigenvalue-minimisations  :    48
 total energy-change (2. order) :-0.1190791E-02  (-0.2805582E-03)
 number of electron   24.0000000 magnetization 
 augmentation part    -0.0848507 magnetization 

 Broyden mixing:
  rms(total) = 0.80141E-02    rms(broyden)= 0.80101E-02
  rms(prec ) = 0.19676E-01
  weight for this iteration     100.00

 eigenvalues of (default mixing * dielectric matrix)
  average eigenvalue GAMMA=   1.8381
  3.5398  2.4131  2.0835  1.0817  1.0817  0.8287

 Free energy of the ion-electron system (eV)
  ---------------------------------------------------
  alpha Z        PSCENC =         1.35898928
  Ewald energy   TEWEN  =       279.01270898
  -1/2 Hartree   DENC   =     -1248.45902214
  -exchange  EXHF       =         0.00000000
  -V(xc)+E(xc)   XCENC  =        45.54874505
  PAW double counting   =       421.83186457     -385.22418854
  entropy T*S    EENTRO =         0.00000000
  eigenvalues    EBANDS =      -312.45485600
  atomic energy  EATOM  =      1157.55570674
  ---------------------------------------------------
  free energy    TOTEN  =       -40.83005208 eV

  energy without entropy =      -40.83005208  energy(sigma->0) =      -40.83005208


--------------------------------------------------------------------------------------------------------




----------------------------------------- Iteration    1(  19)  ---------------------------------------


    POTLOK:  cpu time    1.17: real time    1.17
    SETDIJ:  cpu time    0.00: real time    0.00
    EDDIAG:  cpu time    0.36: real time    0.35
  RMM-DIIS:  cpu time    1.39: real time    1.39
    ORTHCH:  cpu time    0.02: real time    0.02
       DOS:  cpu time    0.00: real time    0.00
    CHARGE:  cpu time    0.34: real time    0.34
    MIXING:  cpu time    0.04: real time    0.04
    --------------------------------------------
      LOOP:  cpu time    3.31: real time    3.32

 eigenvalue-minimisations  :    48
 total energy-change (2. order) :-0.4821508E-02  (-0.2670915E-03)
 number of electron   24.0000000 magnetization 
 augmentation part    -0.0849982 magnetization 

 Broyden mixing:
  rms(total) = 0.42770E-02    rms(broyden)= 0.42731E-02
  rms(prec ) = 0.94940E-02
  weight for this iteration     100.00

 eigenvalues of (default mixing * dielectric matrix)
  average eigenvalue GAMMA=   1.9745
  4.0014  2.5129  2.1580  2.1580  1.0821  1.0821  0.8270

 Free energy of the ion-electron system (eV)
  ---------------------------------------------------
  alpha Z        PSCENC =         1.35898928
  Ewald energy   TEWEN  =       279.01270898
  -1/2 Hartree   DENC   =     -1249.37980020
  -exchange  EXHF       =         0.00000000
  -V(xc)+E(xc)   XCENC  =        45.57352401
  PAW double counting   =       421.89636263     -385.29806291
  entropy T*S    EENTRO =         0.00000000
  eigenvalues    EBANDS =      -311.55430211
  atomic energy  EATOM  =      1157.55570674
  ---------------------------------------------------
  free energy    TOTEN  =       -40.83487359 eV

  energy without entropy =      -40.83487359  energy(sigma->0) =      -40.83487359


--------------------------------------------------------------------------------------------------------




----------------------------------------- Iteration    1(  20)  ---------------------------------------


    POTLOK:  cpu time    1.17: real time    1.17
    SETDIJ:  cpu time    0.00: real time    0.00
    EDDIAG:  cpu time    0.35: real time    0.35
  RMM-DIIS:  cpu time    1.47: real time    1.47
    ORTHCH:  cpu time    0.02: real time    0.02
       DOS:  cpu time    0.00: real time    0.00
    CHARGE:  cpu time    0.34: real time    0.34
    MIXING:  cpu time    0.04: real time    0.04
    --------------------------------------------
      LOOP:  cpu time    3.40: real time    3.40

 eigenvalue-minimisations  :    49
 total energy-change (2. order) :-0.4866089E-02  (-0.1696880E-03)
 number of electron   24.0000000 magnetization 
 augmentation part    -0.0851544 magnetization 

 Broyden mixing:
  rms(total) = 0.50057E-02    rms(broyden)= 0.50008E-02
  rms(prec ) = 0.74183E-02
  weight for this iteration     100.00

 eigenvalues of (default mixing * dielectric matrix)
  average eigenvalue GAMMA=   2.0589
  5.5682  2.7042  2.4355  1.6310  1.1741  1.1741  0.9612  0.8233

 Free energy of the ion-electron system (eV)
  ---------------------------------------------------
  alpha Z        PSCENC =         1.35898928
  Ewald energy   TEWEN  =       279.01270898
  -1/2 Hartree   DENC   =     -1249.33816142
  -exchange  EXHF       =         0.00000000
  -V(xc)+E(xc)   XCENC  =        45.55389388
  PAW double counting   =       421.56892757     -384.96773692
  entropy T*S    EENTRO =         0.00000000
  eigenvalues    EBANDS =      -311.58406778
  atomic energy  EATOM  =      1157.55570674
  ---------------------------------------------------
  free energy    TOTEN  =       -40.83973968 eV

  energy without entropy =      -40.83973968  energy(sigma->0) =      -40.83973968


--------------------------------------------------------------------------------------------------------




----------------------------------------- Iteration    1(  21)  ---------------------------------------


    POTLOK:  cpu time    1.17: real time    1.17
    SETDIJ:  cpu time    0.00: real time    0.00
    EDDIAG:  cpu time    0.35: real time    0.35
  RMM-DIIS:  cpu time    1.38: real time    1.38
    ORTHCH:  cpu time    0.02: real time    0.02
       DOS:  cpu time    0.00: real time    0.00
    CHARGE:  cpu time    0.34: real time    0.34
    MIXING:  cpu time    0.04: real time    0.04
    --------------------------------------------
      LOOP:  cpu time    3.30: real time    3.31

 eigenvalue-minimisations  :    48
 total energy-change (2. order) :-0.1049693E-02  (-0.4898779E-04)
 number of electron   24.0000000 magnetization 
 augmentation part    -0.0850733 magnetization 

 Broyden mixing:
  rms(total) = 0.16883E-02    rms(broyden)= 0.16850E-02
  rms(prec ) = 0.33549E-02
  weight for this iteration     100.00

 eigenvalues of (default mixing * dielectric matrix)
  average eigenvalue GAMMA=   2.3415
  6.4792  3.8178  2.5289  2.4355  1.8020  1.1062  1.1062  0.8271  0.9709

 Free energy of the ion-electron system (eV)
  ---------------------------------------------------
  alpha Z        PSCENC =         1.35898928
  Ewald energy   TEWEN  =       279.01270898
  -1/2 Hartree   DENC   =     -1249.49107305
  -exchange  EXHF       =         0.00000000
  -V(xc)+E(xc)   XCENC  =        45.56193466
  PAW double counting   =       421.70595436     -385.10660938
  entropy T*S    EENTRO =         0.00000000
  eigenvalues    EBANDS =      -311.43840095
  atomic energy  EATOM  =      1157.55570674
  ---------------------------------------------------
  free energy    TOTEN  =       -40.84078937 eV

  energy without entropy =      -40.84078937  energy(sigma->0) =      -40.84078937


--------------------------------------------------------------------------------------------------------




----------------------------------------- Iteration    1(  22)  ---------------------------------------


    POTLOK:  cpu time    1.17: real time    1.17
    SETDIJ:  cpu time    0.00: real time    0.00
    EDDIAG:  cpu time    0.35: real time    0.35
  RMM-DIIS:  cpu time    1.38: real time    1.38
    ORTHCH:  cpu time    0.02: real time    0.02
       DOS:  cpu time    0.00: real time    0.00
    CHARGE:  cpu time    0.34: real time    0.34
    MIXING:  cpu time    0.04: real time    0.04
    --------------------------------------------
      LOOP:  cpu time    3.31: real time    3.31

 eigenvalue-minimisations  :    48
 total energy-change (2. order) :-0.1622607E-02  (-0.3118349E-04)
 number of electron   24.0000000 magnetization 
 augmentation part    -0.0850887 magnetization 

 Broyden mixing:
  rms(total) = 0.93969E-03    rms(broyden)= 0.93766E-03
  rms(prec ) = 0.13547E-02
  weight for this iteration     100.00

 eigenvalues of (default mixing * dielectric matrix)
  average eigenvalue GAMMA=   2.2065
  6.6811  3.9633  2.4151  2.4151  1.6935  1.1133  1.1133  0.8364  0.9474  0.8864

 Free energy of the ion-electron system (eV)
  ---------------------------------------------------
  alpha Z        PSCENC =         1.35898928
  Ewald energy   TEWEN  =       279.01270898
  -1/2 Hartree   DENC   =     -1249.48558603
  -exchange  EXHF       =         0.00000000
  -V(xc)+E(xc)   XCENC  =        45.55709332
  PAW double counting   =       421.77623877     -385.17634739
  entropy T*S    EENTRO =         0.00000000
  eigenvalues    EBANDS =      -311.44121564
  atomic energy  EATOM  =      1157.55570674
  ---------------------------------------------------
  free energy    TOTEN  =       -40.84241198 eV

  energy without entropy =      -40.84241198  energy(sigma->0) =      -40.84241198


--------------------------------------------------------------------------------------------------------




----------------------------------------- Iteration    1(  23)  ---------------------------------------


    POTLOK:  cpu time    1.17: real time    1.17
    SETDIJ:  cpu time    0.00: real time    0.00
    EDDIAG:  cpu time    0.36: real time    0.35
  RMM-DIIS:  cpu time    1.48: real time    1.48
    ORTHCH:  cpu time    0.02: real time    0.02
       DOS:  cpu time    0.00: real time    0.00
    CHARGE:  cpu time    0.33: real time    0.34
    MIXING:  cpu time    0.04: real time    0.04
    --------------------------------------------
      LOOP:  cpu time    3.40: real time    3.40

 eigenvalue-minimisations  :    49
 total energy-change (2. order) :-0.4168310E-04  (-0.1493195E-05)
 number of electron   24.0000000 magnetization 
 augmentation part    -0.0850854 magnetization 

 Broyden mixing:
  rms(total) = 0.47912E-03    rms(broyden)= 0.47902E-03
  rms(prec ) = 0.82593E-03
  weight for this iteration     100.00

 eigenvalues of (default mixing * dielectric matrix)
  average eigenvalue GAMMA=   2.4648
  7.4819  4.8565  3.1246  2.4563  2.4563  1.7049  1.1167  1.1167  0.8297  1.0276
  0.9419

 Free energy of the ion-electron system (eV)
  ---------------------------------------------------
  alpha Z        PSCENC =         1.35898928
  Ewald energy   TEWEN  =       279.01270898
  -1/2 Hartree   DENC   =     -1249.48276618
  -exchange  EXHF       =         0.00000000
  -V(xc)+E(xc)   XCENC  =        45.55669091
  PAW double counting   =       421.75429080     -385.15428830
  entropy T*S    EENTRO =         0.00000000
  eigenvalues    EBANDS =      -311.44378588
  atomic energy  EATOM  =      1157.55570674
  ---------------------------------------------------
  free energy    TOTEN  =       -40.84245366 eV

  energy without entropy =      -40.84245366  energy(sigma->0) =      -40.84245366


--------------------------------------------------------------------------------------------------------




----------------------------------------- Iteration    1(  24)  ---------------------------------------


    POTLOK:  cpu time    1.18: real time    1.18
    SETDIJ:  cpu time    0.00: real time    0.00
    EDDIAG:  cpu time    0.35: real time    0.35
  RMM-DIIS:  cpu time    1.40: real time    1.40
    ORTHCH:  cpu time    0.02: real time    0.02
       DOS:  cpu time    0.00: real time    0.00
    CHARGE:  cpu time    0.34: real time    0.34
    MIXING:  cpu time    0.04: real time    0.04
    --------------------------------------------
      LOOP:  cpu time    3.34: real time    3.33

 eigenvalue-minimisations  :    48
 total energy-change (2. order) :-0.2417925E-03  (-0.2641501E-05)
 number of electron   24.0000000 magnetization 
 augmentation part    -0.0850926 magnetization 

 Broyden mixing:
  rms(total) = 0.45150E-03    rms(broyden)= 0.45083E-03
  rms(prec ) = 0.58673E-03
  weight for this iteration     100.00

 eigenvalues of (default mixing * dielectric matrix)
  average eigenvalue GAMMA=   2.3295
  7.9289  4.8105  3.0711  2.3582  2.3582  1.6687  1.1202  1.1202  0.9938  0.9243
  0.8348  0.7646

 Free energy of the ion-electron system (eV)
  ---------------------------------------------------
  alpha Z        PSCENC =         1.35898928
  Ewald energy   TEWEN  =       279.01270898
  -1/2 Hartree   DENC   =     -1249.49637012
  -exchange  EXHF       =         0.00000000
  -V(xc)+E(xc)   XCENC  =        45.55745346
  PAW double counting   =       421.74636210     -385.14645832
  entropy T*S    EENTRO =         0.00000000
  eigenvalues    EBANDS =      -311.43108756
  atomic energy  EATOM  =      1157.55570674
  ---------------------------------------------------
  free energy    TOTEN  =       -40.84269545 eV

  energy without entropy =      -40.84269545  energy(sigma->0) =      -40.84269545


--------------------------------------------------------------------------------------------------------




----------------------------------------- Iteration    1(  25)  ---------------------------------------


    POTLOK:  cpu time    1.18: real time    1.19
    SETDIJ:  cpu time    0.00: real time    0.00
    EDDIAG:  cpu time    0.35: real time    0.35
  RMM-DIIS:  cpu time    1.40: real time    1.40
    ORTHCH:  cpu time    0.02: real time    0.02
       DOS:  cpu time    0.00: real time    0.00
    CHARGE:  cpu time    0.34: real time    0.34
    MIXING:  cpu time    0.04: real time    0.04
    --------------------------------------------
      LOOP:  cpu time    3.33: real time    3.34

 eigenvalue-minimisations  :    48
 total energy-change (2. order) :-0.2499510E-05  (-0.1280551E-06)
 number of electron   24.0000000 magnetization 
 augmentation part    -0.0850921 magnetization 

 Broyden mixing:
  rms(total) = 0.23397E-03    rms(broyden)= 0.23394E-03
  rms(prec ) = 0.32114E-03
  weight for this iteration     100.00

 eigenvalues of (default mixing * dielectric matrix)
  average eigenvalue GAMMA=   2.3263
  8.0991  4.9479  3.0271  2.3253  2.3253  1.7120  1.4010  1.4010  1.1158  1.1158
  0.8295  1.0232  0.9187

 Free energy of the ion-electron system (eV)
  ---------------------------------------------------
  alpha Z        PSCENC =         1.35898928
  Ewald energy   TEWEN  =       279.01270898
  -1/2 Hartree   DENC   =     -1249.49261551
  -exchange  EXHF       =         0.00000000
  -V(xc)+E(xc)   XCENC  =        45.55722105
  PAW double counting   =       421.74510555     -385.14518685
  entropy T*S    EENTRO =         0.00000000
  eigenvalues    EBANDS =      -311.43462718
  atomic energy  EATOM  =      1157.55570674
  ---------------------------------------------------
  free energy    TOTEN  =       -40.84269795 eV

  energy without entropy =      -40.84269795  energy(sigma->0) =      -40.84269795


--------------------------------------------------------------------------------------------------------




----------------------------------------- Iteration    1(  26)  ---------------------------------------


    POTLOK:  cpu time    1.19: real time    1.19
    SETDIJ:  cpu time    0.00: real time    0.00
    EDDIAG:  cpu time    0.36: real time    0.35
  RMM-DIIS:  cpu time    1.38: real time    1.38
    ORTHCH:  cpu time    0.02: real time    0.02
       DOS:  cpu time    0.00: real time    0.00
    CHARGE:  cpu time    0.34: real time    0.34
    MIXING:  cpu time    0.04: real time    0.04
    --------------------------------------------
      LOOP:  cpu time    3.32: real time    3.33

 eigenvalue-minimisations  :    48
 total energy-change (2. order) :-0.2954295E-04  (-0.3746354E-06)
 number of electron   24.0000000 magnetization 
 augmentation part    -0.0850821 magnetization 

 Broyden mixing:
  rms(total) = 0.23267E-03    rms(broyden)= 0.23187E-03
  rms(prec ) = 0.30285E-03
  weight for this iteration     100.00

 eigenvalues of (default mixing * dielectric matrix)
  average eigenvalue GAMMA=   2.2936
  8.1953  5.1192  3.3050  2.4787  2.3927  1.7137  1.7137  1.2163  1.2163  0.8296
  0.9885  0.9885  0.9767  0.9767

 Free energy of the ion-electron system (eV)
  ---------------------------------------------------
  alpha Z        PSCENC =         1.35898928
  Ewald energy   TEWEN  =       279.01270898
  -1/2 Hartree   DENC   =     -1249.48394851
  -exchange  EXHF       =         0.00000000
  -V(xc)+E(xc)   XCENC  =        45.55681400
  PAW double counting   =       421.73992879     -385.13996488
  entropy T*S    EENTRO =         0.00000000
  eigenvalues    EBANDS =      -311.44296189
  atomic energy  EATOM  =      1157.55570674
  ---------------------------------------------------
  free energy    TOTEN  =       -40.84272750 eV

  energy without entropy =      -40.84272750  energy(sigma->0) =      -40.84272750


--------------------------------------------------------------------------------------------------------




----------------------------------------- Iteration    1(  27)  ---------------------------------------


    POTLOK:  cpu time    1.18: real time    1.18
    SETDIJ:  cpu time    0.00: real time    0.00
    EDDIAG:  cpu time    0.35: real time    0.35
  RMM-DIIS:  cpu time    1.40: real time    1.40
    ORTHCH:  cpu time    0.02: real time    0.02
       DOS:  cpu time    0.00: real time    0.00
    CHARGE:  cpu time    0.34: real time    0.34
    MIXING:  cpu time    0.04: real time    0.04
    --------------------------------------------
      LOOP:  cpu time    3.34: real time    3.50

 eigenvalue-minimisations  :    48
 total energy-change (2. order) :-0.6840269E-05  (-0.3112695E-07)
 number of electron   24.0000000 magnetization 
 augmentation part    -0.0850823 magnetization 

 Broyden mixing:
  rms(total) = 0.11555E-03    rms(broyden)= 0.11555E-03
  rms(prec ) = 0.15519E-03
  weight for this iteration     100.00

 eigenvalues of (default mixing * dielectric matrix)
  average eigenvalue GAMMA=   2.3594
  8.2749  5.2875  3.7701  2.9202  2.3596  2.3596  1.6651  1.3764  1.3764  1.0988
  1.0988  1.1185  0.8298  0.9518  0.9034

 Free energy of the ion-electron system (eV)
  ---------------------------------------------------
  alpha Z        PSCENC =         1.35898928
  Ewald energy   TEWEN  =       279.01270898
  -1/2 Hartree   DENC   =     -1249.48743889
  -exchange  EXHF       =         0.00000000
  -V(xc)+E(xc)   XCENC  =        45.55701372
  PAW double counting   =       421.74364931     -385.14374472
  entropy T*S    EENTRO =         0.00000000
  eigenvalues    EBANDS =      -311.43961876
  atomic energy  EATOM  =      1157.55570674
  ---------------------------------------------------
  free energy    TOTEN  =       -40.84273434 eV

  energy without entropy =      -40.84273434  energy(sigma->0) =      -40.84273434


--------------------------------------------------------------------------------------------------------




----------------------------------------- Iteration    1(  28)  ---------------------------------------


    POTLOK:  cpu time    1.20: real time    1.20
    SETDIJ:  cpu time    0.00: real time    0.00
    EDDIAG:  cpu time    0.35: real time    0.35
  RMM-DIIS:  cpu time    1.38: real time    1.38
    ORTHCH:  cpu time    0.02: real time    0.02
       DOS:  cpu time    0.00: real time    0.00
    CHARGE:  cpu time    0.34: real time    0.34
    MIXING:  cpu time    0.04: real time    0.04
    --------------------------------------------
      LOOP:  cpu time    3.33: real time    3.34

 eigenvalue-minimisations  :    48
 total energy-change (2. order) :-0.3161972E-05  (-0.5472813E-07)
 number of electron   24.0000000 magnetization 
 augmentation part    -0.0850872 magnetization 

 Broyden mixing:
  rms(total) = 0.56198E-04    rms(broyden)= 0.55665E-04
  rms(prec ) = 0.74313E-04
  weight for this iteration     100.00

 eigenvalues of (default mixing * dielectric matrix)
  average eigenvalue GAMMA=   2.2981
  8.3369  5.3204  4.0369  2.8884  2.3284  2.3284  1.5829  1.3725  1.3725  1.2847
  1.0794  1.0794  0.8298  1.0146  1.0146  0.9005

 Free energy of the ion-electron system (eV)
  ---------------------------------------------------
  alpha Z        PSCENC =         1.35898928
  Ewald energy   TEWEN  =       279.01270898
  -1/2 Hartree   DENC   =     -1249.48866179
  -exchange  EXHF       =         0.00000000
  -V(xc)+E(xc)   XCENC  =        45.55707392
  PAW double counting   =       421.74644567     -385.14657255
  entropy T*S    EENTRO =         0.00000000
  eigenvalues    EBANDS =      -311.43842774
  atomic energy  EATOM  =      1157.55570674
  ---------------------------------------------------
  free energy    TOTEN  =       -40.84273750 eV

  energy without entropy =      -40.84273750  energy(sigma->0) =      -40.84273750


--------------------------------------------------------------------------------------------------------




----------------------------------------- Iteration    1(  29)  ---------------------------------------


    POTLOK:  cpu time    1.20: real time    1.19
    SETDIJ:  cpu time    0.00: real time    0.00
    EDDIAG:  cpu time    0.35: real time    0.35
  RMM-DIIS:  cpu time    1.40: real time    1.40
    ORTHCH:  cpu time    0.02: real time    0.02
       DOS:  cpu time    0.00: real time    0.00
    CHARGE:  cpu time    0.34: real time    0.34
    MIXING:  cpu time    0.04: real time    0.04
    --------------------------------------------
      LOOP:  cpu time    3.35: real time    3.35

 eigenvalue-minimisations  :    48
 total energy-change (2. order) :-0.1385065E-06  (-0.3181999E-08)
 number of electron   24.0000000 magnetization 
 augmentation part    -0.0850866 magnetization 

 Broyden mixing:
  rms(total) = 0.15089E-04    rms(broyden)= 0.15068E-04
  rms(prec ) = 0.25877E-04
  weight for this iteration     100.00

 eigenvalues of (default mixing * dielectric matrix)
  average eigenvalue GAMMA=   2.3457
[...]
      6.624210  4.452710  5.333333     0.660902   -0.371953    0.000000  
      3.933432  6.172253  5.333333    -0.003468    0.003318    0.000000  
      7.627884  3.887667  5.333333    -0.567771    0.319096    0.000000  
      2.460731  5.376950  5.333333    -0.004494    0.000364    0.000000  
 
   3 f  =   65.702727 THz   412.822410 2PiTHz 2191.607005 cm-1   271.724735 meV
             X         Y         Z           dx          dy          dz
      4.723092  5.565557  5.333333     0.005202   -0.004170    0.000000  
      1.430504  6.456305  5.333333    -0.678326    0.711887    0.000000  
      2.283072  4.511173  6.545304     0.005097   -0.008646   -0.006315  
      2.283072  4.511173  4.121363     0.005097   -0.008646    0.006315  
      6.624210  4.452710  5.333333     0.013310   -0.007710    0.000000  
      3.933432  6.172253  5.333333     0.002482    0.002032    0.000000  
      7.627884  3.887667  5.333333    -0.011395    0.006505    0.000000  
      2.460731  5.376950  5.333333     0.123029   -0.131186    0.000000  
 
   4 f  =   64.280799 THz   403.888170 2PiTHz 2144.176582 cm-1   265.844110 meV
             X         Y         Z           dx          dy          dz
      4.723092  5.565557  5.333333     0.005227   -0.001444    0.000000  
      1.430504  6.456305  5.333333    -0.010688    0.012730    0.000000  
      2.283072  4.511173  6.545304    -0.079844   -0.392779    0.572994  
      2.283072  4.511173  4.121363    -0.079844   -0.392779   -0.572994  
      6.624210  4.452710  5.333333     0.009827   -0.005525    0.000000  
      3.933432  6.172253  5.333333     0.002325    0.002464    0.000000  
      7.627884  3.887667  5.333333    -0.007987    0.004426    0.000000  
      2.460731  5.376950  5.333333     0.028396    0.143946    0.000000  
 
   5 f  =   64.107069 THz   402.796593 2PiTHz 2138.381578 cm-1   265.125621 meV
             X         Y         Z           dx          dy          dz
      4.723092  5.565557  5.333333     0.000000    0.000000    0.000740  
      1.430504  6.456305  5.333333     0.000000    0.000000    0.017163  
      2.283072  4.511173  6.545304     0.074180    0.404187   -0.556443  
      2.283072  4.511173  4.121363    -0.074180   -0.404187   -0.556443  
      6.624210  4.452710  5.333333     0.000000    0.000000    0.000017  
      3.933432  6.172253  5.333333     0.000000    0.000000   -0.000383  
      7.627884  3.887667  5.333333     0.000000    0.000000    0.000006  
      2.460731  5.376950  5.333333     0.000000    0.000000    0.206659  
 
   6 f  =   29.161704 THz   183.228389 2PiTHz  972.729704 cm-1   120.603156 meV
             X         Y         Z           dx          dy          dz
      4.723092  5.565557  5.333333     0.540729    0.638611    0.000000  
      1.430504  6.456305  5.333333    -0.031756    0.026087    0.000000  
      2.283072  4.511173  6.545304     0.250888   -0.081178   -0.022317  
      2.283072  4.511173  4.121363     0.250888   -0.081178    0.022317  
      6.624210  4.452710  5.333333    -0.015043   -0.027254    0.000000  
      3.933432  6.172253  5.333333     0.165940   -0.185087    0.000000  
      7.627884  3.887667  5.333333     0.004049    0.011727    0.000000  
      2.460731  5.376950  5.333333    -0.303417    0.055274    0.000000  
 
   7 f  =   28.513604 THz   179.156256 2PiTHz  951.111414 cm-1   117.922829 meV
             X         Y         Z           dx          dy          dz
      4.723092  5.565557  5.333333    -0.094929   -0.110351    0.000000  
      1.430504  6.456305  5.333333     0.276064    0.262181    0.000000  
      2.283072  4.511173  6.545304     0.346709    0.382585    0.340309  
      2.283072  4.511173  4.121363     0.346709    0.382585   -0.340309  
      6.624210  4.452710  5.333333    -0.000269    0.006799    0.000000  
      3.933432  6.172253  5.333333    -0.001465    0.044732    0.000000  
      7.627884  3.887667  5.333333    -0.001092   -0.001191    0.000000  
      2.460731  5.376950  5.333333    -0.155633   -0.206902    0.000000  
 
   8 f  =   27.710252 THz   174.108649 2PiTHz  924.314488 cm-1   114.600432 meV
             X         Y         Z           dx          dy          dz
      4.723092  5.565557  5.333333    -0.182117   -0.212994    0.000000  
      1.430504  6.456305  5.333333     0.395787    0.389552    0.000000  
      2.283072  4.511173  6.545304     0.290884   -0.394413   -0.234756  
      2.283072  4.511173  4.121363     0.290884   -0.394413    0.234756  
      6.624210  4.452710  5.333333     0.004602    0.011855    0.000000  
      3.933432  6.172253  5.333333    -0.050444    0.062680    0.000000  
      7.627884  3.887667  5.333333    -0.002023   -0.004203    0.000000  
      2.460731  5.376950  5.333333    -0.110472    0.060310    0.000000  
 
   9 f  =   27.454722 THz   172.503103 2PiTHz  915.790907 cm-1   113.543642 meV
             X         Y         Z           dx          dy          dz
      4.723092  5.565557  5.333333     0.000000    0.000000    0.043188  
      1.430504  6.456305  5.333333     0.000000    0.000000    0.775226  
      2.283072  4.511173  6.545304    -0.300803    0.266151    0.127075  
      2.283072  4.511173  4.121363     0.300803   -0.266151    0.127075  
      6.624210  4.452710  5.333333     0.000000    0.000000   -0.002266  
      3.933432  6.172253  5.333333     0.000000    0.000000    0.007374  
      7.627884  3.887667  5.333333     0.000000    0.000000    0.000803  
      2.460731  5.376950  5.333333     0.000000    0.000000   -0.205343  
 
  10 f  =   24.592359 THz   154.518352 2PiTHz  820.312788 cm-1   101.705860 meV
             X         Y         Z           dx          dy          dz
      4.723092  5.565557  5.333333    -0.011338   -0.152733    0.000000  
      1.430504  6.456305  5.333333    -0.057520   -0.031206    0.000000  
      2.283072  4.511173  6.545304    -0.127126   -0.054563   -0.012433  
      2.283072  4.511173  4.121363    -0.127126   -0.054563    0.012433  
      6.624210  4.452710  5.333333     0.000171    0.012855    0.000000  
      3.933432  6.172253  5.333333     0.689728    0.425153    0.000000  
      7.627884  3.887667  5.333333    -0.008854   -0.001502    0.000000  
      2.460731  5.376950  5.333333    -0.450550   -0.271947    0.000000  
 
  11 f  =   20.435777 THz   128.401774 2PiTHz  681.664124 cm-1    84.515610 meV
             X         Y         Z           dx          dy          dz
      4.723092  5.565557  5.333333    -0.181351   -0.313500    0.000000  
      1.430504  6.456305  5.333333    -0.514694   -0.433708    0.000000  
      2.283072  4.511173  6.545304     0.393725   -0.039313    0.000581  
      2.283072  4.511173  4.121363     0.393725   -0.039313   -0.000581  
      6.624210  4.452710  5.333333     0.012466    0.021927    0.000000  
      3.933432  6.172253  5.333333     0.111241   -0.135323    0.000000  
      7.627884  3.887667  5.333333    -0.004548   -0.009322    0.000000  
      2.460731  5.376950  5.333333    -0.109658    0.243374    0.000000  
 
  12 f  =   20.349334 THz   127.858639 2PiTHz  678.780710 cm-1    84.158112 meV
             X         Y         Z           dx          dy          dz
      4.723092  5.565557  5.333333     0.000000    0.000000   -0.050940  
      1.430504  6.456305  5.333333     0.000000    0.000000    0.109833  
      2.283072  4.511173  6.545304     0.553551    0.254514    0.205639  
      2.283072  4.511173  4.121363    -0.553551   -0.254514    0.205639  
      6.624210  4.452710  5.333333     0.000000    0.000000    0.006551  
      3.933432  6.172253  5.333333     0.000000    0.000000    0.268116  
      7.627884  3.887667  5.333333     0.000000    0.000000   -0.002130  
      2.460731  5.376950  5.333333     0.000000    0.000000   -0.294009  
 
  13 f  =   12.423227 THz    78.057437 2PiTHz  414.394232 cm-1    51.378355 meV
             X         Y         Z           dx          dy          dz
      4.723092  5.565557  5.333333     0.000000    0.000000    0.957025  
      1.430504  6.456305  5.333333     0.000000    0.000000    0.024286  
      2.283072  4.511173  6.545304     0.080664   -0.022934   -0.007311  
      2.283072  4.511173  4.121363    -0.080664    0.022934   -0.007311  
      6.624210  4.452710  5.333333     0.000000    0.000000   -0.219174  
      3.933432  6.172253  5.333333     0.000000    0.000000   -0.114868  
      7.627884  3.887667  5.333333     0.000000    0.000000    0.089078  
      2.460731  5.376950  5.333333     0.000000    0.000000   -0.013211  
 
  14 f  =    4.618848 THz    29.021078 2PiTHz  154.068179 cm-1    19.102027 meV
             X         Y         Z           dx          dy          dz
      4.723092  5.565557  5.333333    -0.033202    0.050368    0.000000  
      1.430504  6.456305  5.333333    -0.045649   -0.052569    0.000000  
      2.283072  4.511173  6.545304     0.050325   -0.012626   -0.000441  
      2.283072  4.511173  4.121363     0.050325   -0.012626    0.000441  
      6.624210  4.452710  5.333333    -0.302094   -0.794372    0.000000  
      3.933432  6.172253  5.333333    -0.099684    0.249242    0.000000  
      7.627884  3.887667  5.333333     0.330604    0.285261    0.000000  
      2.460731  5.376950  5.333333     0.029556   -0.015374    0.000000  
 
  15 f  =    3.829918 THz    24.064086 2PiTHz  127.752317 cm-1    15.839274 meV
             X         Y         Z           dx          dy          dz
      4.723092  5.565557  5.333333     0.000000    0.000000    0.202921  
      1.430504  6.456305  5.333333     0.000000    0.000000    0.121736  
      2.283072  4.511173  6.545304     0.064165   -0.093767   -0.060486  
      2.283072  4.511173  4.121363    -0.064165    0.093767   -0.060486  
      6.624210  4.452710  5.333333     0.000000    0.000000    0.763943  
      3.933432  6.172253  5.333333     0.000000    0.000000   -0.046175  
      7.627884  3.887667  5.333333     0.000000    0.000000   -0.569975  
      2.460731  5.376950  5.333333     0.000000    0.000000   -0.015975  
 
  16 f  =    2.628895 THz    16.517836 2PiTHz   87.690504 cm-1    10.872241 meV
             X         Y         Z           dx          dy          dz
      4.723092  5.565557  5.333333    -0.055912    0.163969    0.000000  
      1.430504  6.456305  5.333333    -0.116146   -0.075925    0.000000  
      2.283072  4.511173  6.545304     0.027376   -0.014928    0.000701  
      2.283072  4.511173  4.121363     0.027376   -0.014928   -0.000701  
      6.624210  4.452710  5.333333     0.475871   -0.028205    0.000000  
      3.933432  6.172253  5.333333    -0.383905    0.440247    0.000000  
      7.627884  3.887667  5.333333     0.297532   -0.495993    0.000000  
      2.460731  5.376950  5.333333    -0.213425   -0.015953    0.000000  
 
  17 f  =    1.557905 THz     9.788607 2PiTHz   51.966120 cm-1     6.442980 meV
             X         Y         Z           dx          dy          dz
      4.723092  5.565557  5.333333     0.000000    0.000000   -0.113922  
      1.430504  6.456305  5.333333     0.000000    0.000000    0.472675  
      2.283072  4.511173  6.545304     0.197785   -0.408860   -0.312990  
      2.283072  4.511173  4.121363    -0.197785    0.408860   -0.312990  
      6.624210  4.452710  5.333333     0.000000    0.000000   -0.028579  
      3.933432  6.172253  5.333333     0.000000    0.000000   -0.065639  
      7.627884  3.887667  5.333333     0.000000    0.000000    0.280380  
      2.460731  5.376950  5.333333     0.000000    0.000000   -0.267146  
 
  18 f  =    0.951069 THz     5.975740 2PiTHz   31.724234 cm-1     3.933305 meV
             X         Y         Z           dx          dy          dz
      4.723092  5.565557  5.333333     0.105869    0.133162    0.000000  
      1.430504  6.456305  5.333333     0.035438   -0.148426    0.000000  
      2.283072  4.511173  6.545304     0.211413   -0.070023   -0.000566  
      2.283072  4.511173  4.121363     0.211413   -0.070023    0.000566  
      6.624210  4.452710  5.333333     0.172975    0.171003    0.000000  
      3.933432  6.172253  5.333333     0.255296    0.316713    0.000000  
      7.627884  3.887667  5.333333     0.144620    0.101180    0.000000  
      2.460731  5.376950  5.333333     0.716765   -0.281117    0.000000  
 
  19 f  =    0.723357 THz     4.544987 2PiTHz   24.128596 cm-1     2.991566 meV
             X         Y         Z           dx          dy          dz
      4.723092  5.565557  5.333333     0.000000    0.000000   -0.015678  
      1.430504  6.456305  5.333333     0.000000    0.000000   -0.290423  
      2.283072  4.511173  6.545304    -0.124823    0.040661   -0.141292  
      2.283072  4.511173  4.121363     0.124823   -0.040661   -0.141292  
      6.624210  4.452710  5.333333     0.000000    0.000000   -0.229400  
      3.933432  6.172253  5.333333     0.000000    0.000000   -0.110454  
      7.627884  3.887667  5.333333     0.000000    0.000000   -0.355024  
      2.460731  5.376950  5.333333     0.000000    0.000000   -0.806317  
 
  20 f/i=    0.404221 THz     2.539795 2PiTHz   13.483359 cm-1     1.671724 meV
             X         Y         Z           dx          dy          dz
      4.723092  5.565557  5.333333     0.021374   -0.125997    0.000000  
      1.430504  6.456305  5.333333     0.028801   -0.093833    0.000000  
      2.283072  4.511173  6.545304     0.003510   -0.103198    0.000820  
      2.283072  4.511173  4.121363     0.003510   -0.103198   -0.000820  
      6.624210  4.452710  5.333333     0.044053   -0.349334    0.000000  
      3.933432  6.172253  5.333333     0.094717   -0.493343    0.000000  
      7.627884  3.887667  5.333333    -0.001987   -0.497113    0.000000  
      2.460731  5.376950  5.333333     0.081965   -0.567918    0.000000  
 
  21 f/i=    0.510880 THz     3.209955 2PiTHz   17.041131 cm-1     2.112832 meV
             X         Y         Z           dx          dy          dz
      4.723092  5.565557  5.333333     0.000000    0.000000   -0.109682  
      1.430504  6.456305  5.333333     0.000000    0.000000    0.251803  
      2.283072  4.511173  6.545304     0.130109   -0.091579    0.015226  
      2.283072  4.511173  4.121363    -0.130109    0.091579    0.015226  
      6.624210  4.452710  5.333333     0.000000    0.000000   -0.551112  
      3.933432  6.172253  5.333333     0.000000    0.000000   -0.144961  
      7.627884  3.887667  5.333333     0.000000    0.000000   -0.665130  
      2.460731  5.376950  5.333333     0.000000    0.000000    0.326091  
 
  22 f/i=    1.112007 THz     6.986949 2PiTHz   37.092574 cm-1     4.598895 meV
             X         Y         Z           dx          dy          dz
      4.723092  5.565557  5.333333     0.054676   -0.128761    0.000000  
      1.430504  6.456305  5.333333     0.134906    0.197637    0.000000  
      2.283072  4.511173  6.545304    -0.066524    0.109924   -0.000800  
      2.283072  4.511173  4.121363    -0.066524    0.109924    0.000800  
      6.624210  4.452710  5.333333     0.364194   -0.162469    0.000000  
      3.933432  6.172253  5.333333     0.426787   -0.247182    0.000000  
      7.627884  3.887667  5.333333     0.466178   -0.108898    0.000000  
      2.460731  5.376950  5.333333     0.132778    0.490982    0.000000  
 
  23 f/i=    1.944560 THz    12.218031 2PiTHz   64.863539 cm-1     8.042057 meV
             X         Y         Z           dx          dy          dz
      4.723092  5.565557  5.333333     0.000000    0.000000   -0.114943  
      1.430504  6.456305  5.333333     0.000000    0.000000   -0.009302  
      2.283072  4.511173  6.545304     0.123871    0.120394    0.100330  
      2.283072  4.511173  4.121363    -0.123871   -0.120394    0.100330  
      6.624210  4.452710  5.333333     0.000000    0.000000    0.105549  
      3.933432  6.172253  5.333333     0.000000    0.000000   -0.935527  
      7.627884  3.887667  5.333333     0.000000    0.000000    0.141897  
      2.460731  5.376950  5.333333     0.000000    0.000000   -0.020140  
 
  24 f/i=    1.969274 THz    12.373314 2PiTHz   65.687910 cm-1     8.144266 meV
             X         Y         Z           dx          dy          dz
      4.723092  5.565557  5.333333     0.037326    0.063180    0.000000  
      1.430504  6.456305  5.333333     0.039780    0.064688    0.000000  
      2.283072  4.511173  6.545304     0.047075    0.067344   -0.000859  
      2.283072  4.511173  4.121363     0.047075    0.067344    0.000859  
      6.624210  4.452710  5.333333    -0.283390   -0.224694    0.000000  
      3.933432  6.172253  5.333333     0.170662    0.283987    0.000000  
      7.627884  3.887667  5.333333    -0.491164   -0.548877    0.000000  
      2.460731  5.376950  5.333333     0.236650    0.369137    0.000000  
 


--------------------------------------------------------------------------------------------------------


  LATTYP: Found a simple cubic cell.
 ALAT       =    10.0000000000
  
  Lattice vectors:
  
 A1 = (  10.0000000000,   0.0000000000,   0.0000000000)
 A2 = (   0.0000000000,  10.0000000000,   0.0000000000)
 A3 = (   0.0000000000,   0.0000000000,  10.0000000000)
 Subroutine PRICEL returns:
 Original cell was already a primitive cell.
 

Analysis of symmetry for initial positions (statically):

 Routine SETGRP: Setting up the symmetry group for a 
 simple cubic supercell.


 Subroutine GETGRP returns: Found  2 space group operations
 (whereof  1 operations were pure point group operations)
 out of a pool of 48 trial point group operations.


The static configuration has the point symmetry C_1 .
 The point group associated with its full space group is C_1h.

Analysis of symmetry for dynamics (positions and initial velocities):

 Subroutine DYNSYM returns: Found  2 space group operations
 (whereof  1 operations were pure point group operations)
 out of a pool of  2 trial space group operations
 (whereof  1 operations were pure point group operations)
 and found also     1 'primitive' translations


The dynamic configuration has the point symmetry C_1 .
 The point group associated with its full space group is C_1h.
 
 KPOINTS: 1x1x1                                   

Automatic generation of k-mesh.
 
 Subroutine IBZKPT returns following result:
 ===========================================
 
 Found      1 irreducible k-points:
 
 Following reciprocal coordinates:
            Coordinates               Weight
  0.000000  0.000000  0.000000      1.000000
 
 Following cartesian coordinates:
            Coordinates               Weight
  0.000000  0.000000  0.000000      1.000000
 
 writing wavefunctions
     LOOP+:  cpu time   53.67: real time   53.87
    4ORBIT:  cpu time    0.00: real time    0.00

 total amount of memory used by VASP on root node  86595. kBytes
========================================================================

   base      :    30000. kBytes
   nonlr-proj:     2725. kBytes
   fftplans  :    13314. kBytes
   grid      :    39482. kBytes
   one-center:       24. kBytes
   wavefun   :     1050. kBytes
 
  
  
 General timing and accounting informations for this job:
 ========================================================
  
                  Total CPU time used (sec):     2473.111
                            User time (sec):     2232.296
                          System time (sec):      240.815
                         Elapsed time (sec):     2483.470
  
                   Maximum memory used (kb):           0.
                   Average memory used (kb):           0.
  
                          Minor page faults:     19751265
                          Major page faults:           61
                 Voluntary context switches:        17505
