<?xml version="1.0" encoding="ISO-8859-1"?>
<modeling>
 <generator>
  <i name="program" type="string">vasp</i>
  <i name="version" type="string">4.6.34 </i>
  <i name="subversion" type="string">5Dec07 complex  parallel</i>
  <i name="platform" type="string">LinuxIFC_ath</i>
  <i name="date" type="string">2010 01 01</i>
  <i name="time" type="string">13:55:45</i>
 </generator>
 <incar>
  <i type="string" name="SYSTEM">anatas134</i>
  <i type="int" name="ISTART">     0</i>
  <i type="string" name="PREC">high</i>
  <i type="string" name="ALGO">Fast</i>
  <i type="int" name="ISPIN">     2</i>
  <i name="AMIX">      0.30000000</i>
  <i name="BMIX">      0.00020000</i>
  <i name="AMIX_MAG">      0.80000000</i>
  <i name="BMIX_MAG">      0.00010000</i>
  <i type="int" name="NELM">   100</i>
  <i type="int" name="NELMDL">    -5</i>
  <i name="EDIFF">      0.00001000</i>
  <i name="EDIFFG">     -0.05000000</i>
  <i type="int" name="IBRION">     2</i>
  <i type="int" name="NFREE">    10</i>
  <i type="int" name="NSW">   200</i>
  <i type="int" name="ISIF">     2</i>
  <i type="int" name="ISYM">     2</i>
  <i name="ENCUT">    350.00000000</i>
  <i name="POTIM">      0.20000000</i>
  <i type="string" name="LREAL">A</i>
  <i type="int" name="ISMEAR">     1</i>
  <i name="SIGMA">      0.05000000</i>
  <i type="int" name="NSIM">     4</i>
  <i type="int" name="LMAXMIX">     6</i>
  <i type="logical" name="LWAVE"> T  </i>
  <i type="logical" name="LCHARG"> T  </i>
  <i type="int" name="VOSKOWN">     1</i>
  <i type="logical" name="LDAU"> T  </i>
  <v type="int" name="LDAUTYPE">     2</v>
  <v type="int" name="LDAUL">    -1     3    -1    -1</v>
  <v name="LDAUU">      0.00000000      5.50000000      0.00000000      0.00000000</v>
  <v name="LDAUJ">      0.00000000      0.50000000      0.00000000      0.00000000</v>
 </incar>
 <kpoints>
  <generation param="Gamma">
   <v type="int" name="divisions">       1       1       1</v>
   <v name="usershift">      0.00000000       0.00000000       0.00000000 </v>
   <v name="genvec1">      1.00000000       0.00000000       0.00000000 </v>
   <v name="genvec2">      0.00000000       1.00000000       0.00000000 </v>
   <v name="genvec3">      0.00000000       0.00000000       1.00000000 </v>
   <v name="shift">      0.00000000       0.00000000       0.00000000 </v>
  </generation>
  <varray name="kpointlist" >
   <v>       0.00000000       0.00000000       0.00000000 </v>
  </varray>
  <varray name="weights" >
   <v>       1.00000000 </v>
  </varray>
 </kpoints>
 <parameters>
  <separator name="general" >
   <i type="string" name="SYSTEM">anatas134</i>
   <i type="logical" name="LCOMPAT"> F  </i>
  </separator>
  <separator name="electronic" >
   <i type="string" name="PREC">high</i>
   <i name="ENMAX">    350.00000000</i>
   <i name="ENAUG">    659.42400000</i>
   <i name="EDIFF">      0.00001000</i>
   <i type="int" name="IALGO">    68</i>
   <i type="int" name="IWAVPR">    11</i>
   <i type="int" name="NBANDS">   630</i>
   <i name="NELECT">    952.00000000</i>
   <separator name="electronic smearing" >
    <i type="int" name="ISMEAR">     1</i>
    <i name="SIGMA">      0.05000000</i>
   </separator>
   <separator name="electronic projectors" >
    <i type="logical" name="LREAL"> T  </i>
    <v name="ROPT">     -0.00040000     -0.00040000     -0.00040000     -0.00040000</v>
    <i type="int" name="LMAXPAW">  -100</i>
    <i type="int" name="LMAXMIX">     6</i>
   </separator>
   <separator name="electronic startup" >
    <i type="int" name="ISTART">     0</i>
    <i type="int" name="ICHARG">     2</i>
    <i type="int" name="INIWAV">     1</i>
   </separator>
   <separator name="electronic spin" >
    <i type="int" name="ISPIN">     2</i>
    <i type="logical" name="LNONCOLLINEAR"> F  </i>
    <v name="MAGMOM">      1.00000000      1.00000000      1.00000000      1.00000000      1.00000000      1.00000000      1.00000000      1.00000000      1.00000000      1.00000000      1.00000000      1.00000000      1.00000000      1.00000000      1.00000000      1.00000000      1.00000000      1.00000000      1.00000000      1.00000000
      1.00000000      1.00000000      1.00000000      1.00000000      1.00000000      1.00000000      1.00000000      1.00000000      1.00000000      1.00000000      1.00000000      1.00000000      1.00000000      1.00000000      1.00000000      1.00000000      1.00000000      1.00000000      1.00000000      1.00000000
      1.00000000      1.00000000      1.00000000      1.00000000      1.00000000      1.00000000      1.00000000      1.00000000      1.00000000      1.00000000      1.00000000      1.00000000      1.00000000      1.00000000      1.00000000      1.00000000      1.00000000      1.00000000      1.00000000      1.00000000
      1.00000000      1.00000000      1.00000000      1.00000000      1.00000000      1.00000000      1.00000000      1.00000000      1.00000000      1.00000000      1.00000000      1.00000000      1.00000000      1.00000000      1.00000000      1.00000000      1.00000000      1.00000000      1.00000000      1.00000000
      1.00000000      1.00000000      1.00000000      1.00000000      1.00000000      1.00000000      1.00000000      1.00000000      1.00000000      1.00000000      1.00000000      1.00000000      1.00000000      1.00000000      1.00000000      1.00000000      1.00000000      1.00000000      1.00000000      1.00000000
      1.00000000      1.00000000      1.00000000      1.00000000      1.00000000      1.00000000      1.00000000      1.00000000      1.00000000      1.00000000      1.00000000      1.00000000      1.00000000      1.00000000      1.00000000      1.00000000      1.00000000      1.00000000</v>
    <i name="NUPDOWN">     -1.00000000</i>
    <i type="logical" name="LSORBIT"> F  </i>
    <v name="SAXIS">      0.00000000      0.00000000      1.00000000</v>
    <i type="logical" name="LSPIRAL"> F  </i>
    <v name="QSPIRAL">      0.00000000      0.00000000      0.00000000</v>
    <i type="logical" name="LZEROZ"> F  </i>
   </separator>
   <separator name="electronic exchange-correlation" >
    <i type="string" name="GGA">--</i>
    <i type="int" name="VOSKOWN">     1</i>
    <i type="logical" name="LASPH"> F  </i>
    <i type="logical" name="LMETAGGA"> F  </i>
    <i type="string" name="GGA2">--</i>
   </separator>
   <separator name="electronic convergence" >
    <i type="int" name="NELM">   100</i>
    <i type="int" name="NELMDL">    -5</i>
    <i type="int" name="NELMIN">     2</i>
    <i name="ENINI">    350.00000000</i>
    <separator name="electronic convergence detail" >
     <i type="logical" name="LDIAG"> T  </i>
     <i name="WEIMIN">      0.00100000</i>
     <i name="EBREAK">      0.00000000</i>
     <i name="DEPER">      0.30000000</i>
     <i type="int" name="NRMM">     4</i>
     <i name="TIME">      0.10000000</i>
    </separator>
   </separator>
   <separator name="electronic mixer" >
    <i name="AMIX">      0.30000000</i>
    <i name="BMIX">      0.00020000</i>
    <i name="AMIN">      0.10000000</i>
    <i name="AMIX_MAG">      0.80000000</i>
    <i name="BMIX_MAG">      0.00010000</i>
    <separator name="electronic mixer details" >
     <i type="int" name="IMIX">     4</i>
     <i type="int" name="MAXMIX">   -45</i>
     <i name="WC">    100.00000000</i>
     <i type="int" name="INIMIX">     1</i>
     <i type="int" name="MIXPRE">     1</i>
     <i type="int" name="MREMOVE">     5</i>
    </separator>
   </separator>
   <separator name="electronic dipolcorrection" >
    <i type="int" name="IDIPOL">     0</i>
    <i type="logical" name="LDIPOL"> F  </i>
    <v name="DIPOL">   -100.00000000</v>
    <i name="EFIELD">      0.00000000</i>
   </separator>
  </separator>
  <separator name="grids" >
   <i type="int" name="NGX">    70</i>
   <i type="int" name="NGY">    70</i>
   <i type="int" name="NGZ">   160</i>
   <i type="int" name="NGXF">   120</i>
   <i type="int" name="NGYF">   128</i>
   <i type="int" name="NGZF">   280</i>
   <i type="logical" name="ADDGRID"> F  </i>
  </separator>
  <separator name="ionic" >
   <i type="int" name="NSW">   200</i>
   <i type="int" name="IBRION">     2</i>
   <i type="int" name="ISIF">     2</i>
   <i name="PSTRESS">      0.00000000</i>
   <i name="EDIFFG">     -0.05000000</i>
   <i type="int" name="NFREE">    10</i>
   <i name="POTIM">      0.20000000</i>
   <i name="SMASS">     -3.00000000</i>
  </separator>
  <separator name="ionic md" >
   <i name="TEBEG">      0.00010000</i>
   <i name="TEEND">      0.00010000</i>
   <i type="int" name="NBLOCK">     1</i>
   <i type="int" name="KBLOCK">   200</i>
   <i type="int" name="NPACO">   256</i>
   <i name="APACO">     16.00000000</i>
  </separator>
  <separator name="symmetry" >
   <i type="int" name="ISYM">     2</i>
   <i name="SYMPREC">      0.00001000</i>
  </separator>
  <separator name="dos" >
   <i type="logical" name="LORBIT"> F  </i>
   <v name="RWIGS">     -1.00000000     -1.00000000     -1.00000000     -1.00000000</v>
   <i type="int" name="NEDOS">   301</i>
   <i name="EMIN">     10.00000000</i>
   <i name="EMAX">    -10.00000000</i>
  </separator>
  <separator name="writing" >
   <i type="int" name="NWRITE">     2</i>
   <i type="logical" name="LWAVE"> T  </i>
   <i type="logical" name="LCHARG"> T  </i>
   <i type="logical" name="LPARD"> F  </i>
   <i type="logical" name="LVTOT"> F  </i>
   <i type="logical" name="LELF"> F  </i>
   <i type="logical" name="LOPTICS"> F  </i>
   <v name="STM">      0.00000000      0.00000000      0.00000000      0.00000000      0.00000000</v>
  </separator>
  <separator name="performance" >
   <i type="int" name="NPAR">    14</i>
   <i type="int" name="NSIM">     4</i>
   <i type="int" name="NBLK">   256</i>
   <i type="logical" name="LPLANE"> T  </i>
   <i type="logical" name="LCRITICAL_MEM"> F  </i>
   <i type="logical" name="LSCALAPACK"> F  </i>
   <i type="logical" name="LSCALU"> F  </i>
   <i type="logical" name="LASYNC"> F  </i>
  </separator>
  <separator name="miscellaneous" >
   <i type="int" name="IDIOT">     3</i>
   <i type="logical" name="LMUSIC"> F  </i>
   <v name="POMASS">     16.00000000    140.11500000    196.96600000     12.01100000</v>
   <i type="logical" name="LCORR"> T  </i>
  </separator>
  <i type="logical" name="LREAL_COMPAT"> F  </i>
  <i type="logical" name="GGA_COMPAT"> T  </i>
  <i type="logical" name="LBERRY"> F  </i>
  <i type="int" name="ICORELEVEL">     0</i>
  <i type="logical" name="LDAU"> T  </i>
  <v type="int" name="LDAUTYPE">     2</v>
  <v type="int" name="LDAUL">    -1</v>
  <v name="LDAUU">      0.00000000</v>
  <v name="LDAUJ">      0.00000000</v>
  <i type="int" name="LDAUPRINT">     0</i>
  <i type="int" name="I_CONSTRAINED_M">     0</i>
 </parameters>
 <atominfo>
  <atoms>     118</atoms>
  <types>       4</types>
  <array name="atoms" >
   <dimension dim="1">ion</dimension>
   <field type="string">element</field>
   <field type="int">atomtype</field>
   <set>
    <rc><c>O </c><c>   1</c></rc>
    <rc><c>O </c><c>   1</c></rc>
    <rc><c>O </c><c>   1</c></rc>
    <rc><c>O </c><c>   1</c></rc>
    <rc><c>O </c><c>   1</c></rc>
    <rc><c>O </c><c>   1</c></rc>
    <rc><c>O </c><c>   1</c></rc>
    <rc><c>O </c><c>   1</c></rc>
    <rc><c>O </c><c>   1</c></rc>
    <rc><c>O </c><c>   1</c></rc>
    <rc><c>O </c><c>   1</c></rc>
    <rc><c>O </c><c>   1</c></rc>
    <rc><c>O </c><c>   1</c></rc>
    <rc><c>O </c><c>   1</c></rc>
    <rc><c>O </c><c>   1</c></rc>
    <rc><c>O </c><c>   1</c></rc>
    <rc><c>O </c><c>   1</c></rc>
    <rc><c>O </c><c>   1</c></rc>
    <rc><c>O </c><c>   1</c></rc>
    <rc><c>O </c><c>   1</c></rc>
    <rc><c>O </c><c>   1</c></rc>
    <rc><c>O </c><c>   1</c></rc>
    <rc><c>O </c><c>   1</c></rc>
    <rc><c>O </c><c>   1</c></rc>
    <rc><c>O </c><c>   1</c></rc>
    <rc><c>O </c><c>   1</c></rc>
    <rc><c>O </c><c>   1</c></rc>
    <rc><c>O </c><c>   1</c></rc>
    <rc><c>O </c><c>   1</c></rc>
    <rc><c>O </c><c>   1</c></rc>
    <rc><c>O </c><c>   1</c></rc>
    <rc><c>O </c><c>   1</c></rc>
    <rc><c>O </c><c>   1</c></rc>
    <rc><c>O </c><c>   1</c></rc>
    <rc><c>O </c><c>   1</c></rc>
    <rc><c>O </c><c>   1</c></rc>
    <rc><c>O </c><c>   1</c></rc>
    <rc><c>O </c><c>   1</c></rc>
    <rc><c>O </c><c>   1</c></rc>
    <rc><c>O </c><c>   1</c></rc>
    <rc><c>O </c><c>   1</c></rc>
    <rc><c>O </c><c>   1</c></rc>
    <rc><c>O </c><c>   1</c></rc>
    <rc><c>O </c><c>   1</c></rc>
    <rc><c>O </c><c>   1</c></rc>
    <rc><c>O </c><c>   1</c></rc>
    <rc><c>O </c><c>   1</c></rc>
    <rc><c>O </c><c>   1</c></rc>
    <rc><c>O </c><c>   1</c></rc>
    <rc><c>O </c><c>   1</c></rc>
    <rc><c>O </c><c>   1</c></rc>
    <rc><c>O </c><c>   1</c></rc>
    <rc><c>O </c><c>   1</c></rc>
    <rc><c>O </c><c>   1</c></rc>
    <rc><c>O </c><c>   1</c></rc>
    <rc><c>O </c><c>   1</c></rc>
    <rc><c>O </c><c>   1</c></rc>
    <rc><c>O </c><c>   1</c></rc>
    <rc><c>O </c><c>   1</c></rc>
    <rc><c>O </c><c>   1</c></rc>
    <rc><c>O </c><c>   1</c></rc>
    <rc><c>O </c><c>   1</c></rc>
    <rc><c>O </c><c>   1</c></rc>
    <rc><c>O </c><c>   1</c></rc>
    <rc><c>O </c><c>   1</c></rc>
    <rc><c>O </c><c>   1</c></rc>
    <rc><c>O </c><c>   1</c></rc>
    <rc><c>O </c><c>   1</c></rc>
    <rc><c>O </c><c>   1</c></rc>
    <rc><c>O </c><c>   1</c></rc>
    <rc><c>O </c><c>   1</c></rc>
    <rc><c>O </c><c>   1</c></rc>
    <rc><c>O </c><c>   1</c></rc>
    <rc><c>O </c><c>   1</c></rc>
    <rc><c>O </c><c>   1</c></rc>
    <rc><c>Ce</c><c>   2</c></rc>
    <rc><c>Ce</c><c>   2</c></rc>
    <rc><c>Ce</c><c>   2</c></rc>
    <rc><c>Ce</c><c>   2</c></rc>
    <rc><c>Ce</c><c>   2</c></rc>
    <rc><c>Ce</c><c>   2</c></rc>
    <rc><c>Ce</c><c>   2</c></rc>
    <rc><c>Ce</c><c>   2</c></rc>
    <rc><c>Ce</c><c>   2</c></rc>
    <rc><c>Ce</c><c>   2</c></rc>
    <rc><c>Ce</c><c>   2</c></rc>
    <rc><c>Ce</c><c>   2</c></rc>
    <rc><c>Ce</c><c>   2</c></rc>
    <rc><c>Ce</c><c>   2</c></rc>
    <rc><c>Ce</c><c>   2</c></rc>
    <rc><c>Ce</c><c>   2</c></rc>
    <rc><c>Ce</c><c>   2</c></rc>
    <rc><c>Ce</c><c>   2</c></rc>
    <rc><c>Ce</c><c>   2</c></rc>
    <rc><c>Ce</c><c>   2</c></rc>
    <rc><c>Ce</c><c>   2</c></rc>
    <rc><c>Ce</c><c>   2</c></rc>
    <rc><c>Ce</c><c>   2</c></rc>
    <rc><c>Ce</c><c>   2</c></rc>
    <rc><c>Ce</c><c>   2</c></rc>
    <rc><c>Ce</c><c>   2</c></rc>
    <rc><c>Ce</c><c>   2</c></rc>
    <rc><c>Ce</c><c>   2</c></rc>
    <rc><c>Ce</c><c>   2</c></rc>
    <rc><c>Ce</c><c>   2</c></rc>
    <rc><c>Ce</c><c>   2</c></rc>
    <rc><c>Ce</c><c>   2</c></rc>
    <rc><c>Ce</c><c>   2</c></rc>
    <rc><c>Ce</c><c>   2</c></rc>
    <rc><c>Ce</c><c>   2</c></rc>
    <rc><c>Ce</c><c>   2</c></rc>
    <rc><c>Au</c><c>   3</c></rc>
    <rc><c>Au</c><c>   3</c></rc>
    <rc><c>Au</c><c>   3</c></rc>
    <rc><c>Au</c><c>   3</c></rc>
    <rc><c>Au</c><c>   3</c></rc>
    <rc><c>Au</c><c>   3</c></rc>
    <rc><c>C </c><c>   4</c></rc>
   </set>
  </array>
  <array name="atomtypes" >
   <dimension dim="1">type</dimension>
   <field type="int">atomspertype</field>
   <field type="string">element</field>
   <field>mass</field>
   <field>valence</field>
   <field type="string">pseudopotential</field>
   <set>
    <rc><c>  75</c><c>O </c><c>     16.00000000</c><c>      6.00000000</c><c>  PAW O                                 </c></rc>
    <rc><c>  36</c><c>Ce</c><c>    140.11500000</c><c>     12.00000000</c><c>  Ce: PAW 5s5p 6s5d4f valence           </c></rc>
    <rc><c>   6</c><c>Au</c><c>    196.96600000</c><c>     11.00000000</c><c>  PAW Au                                </c></rc>
    <rc><c>   1</c><c>C </c><c>     12.01100000</c><c>      4.00000000</c><c>  PAW C                                 </c></rc>
   </set>
  </array>
 </atominfo>
 <structure name="initialpos" >
  <crystal>
   <varray name="basis" >
    <v>      10.73678200       0.00000000       0.00000000 </v>
    <v>       0.00000000      11.38807700       0.00000000 </v>
    <v>       0.00000000       0.00000000      25.00000000 </v>
   </varray>
   <i name="volume">   3056.78250371</i>
   <varray name="rec_basis" >
    <v>       0.09313778       0.00000000       0.00000000 </v>
    <v>       0.00000000       0.08781114       0.00000000 </v>
    <v>       0.00000000       0.00000000       0.04000000 </v>
   </varray>
  </crystal>
  <varray name="positions" >
   <v>       0.12336000       0.00023000       0.29968000 </v>
   <v>       0.12328000       0.33332000       0.29883000 </v>
   <v>       0.12374000       0.66690000       0.29891000 </v>
   <v>       0.62341000       0.00210000       0.30338000 </v>
   <v>       0.62318000       0.33214000       0.30265000 </v>
   <v>       0.62393000       0.66595000       0.30432000 </v>
   <v>       0.13228000       0.00000000       0.14044000 </v>
   <v>       0.13228000       0.33333000       0.14044000 </v>
   <v>       0.13228000       0.66667000       0.14044000 </v>
   <v>       0.61925000       0.00000000       0.14463000 </v>
   <v>       0.61925000       0.33333000       0.14463000 </v>
   <v>       0.61925000       0.66667000       0.14463000 </v>
   <v>       0.12240000       0.00279000       0.45764000 </v>
   <v>       0.11678000       0.33555000       0.46043000 </v>
   <v>       0.11941000       0.66297000       0.45607000 </v>
   <v>       0.62895000       0.99818000       0.46703000 </v>
   <v>       0.62620000       0.33518000       0.47360000 </v>
   <v>       0.63359000       0.66705000       0.46141000 </v>
   <v>       0.37195000       0.16667000       0.06566000 </v>
   <v>       0.37195000       0.50000000       0.06566000 </v>
   <v>       0.37195000       0.83333000       0.06566000 </v>
   <v>       0.37299000       0.16270000       0.38052000 </v>
   <v>       0.37461000       0.50177000       0.38009000 </v>
   <v>       0.37476000       0.83504000       0.38149000 </v>
   <v>       0.87261000       0.16644000       0.38059000 </v>
   <v>       0.87255000       0.50181000       0.37941000 </v>
   <v>       0.87299000       0.83340000       0.37901000 </v>
   <v>       0.37271000       0.16686000       0.22230000 </v>
   <v>       0.37312000       0.49972000       0.22246000 </v>
   <v>       0.37293000       0.83345000       0.22212000 </v>
   <v>       0.87432000       0.16667000       0.21990000 </v>
   <v>       0.87432000       0.50000000       0.21990000 </v>
   <v>       0.87432000       0.83333000       0.21990000 </v>
   <v>       0.87615000       0.17289000       0.53640000 </v>
   <v>       0.87899000       0.50753000       0.53533000 </v>
   <v>       0.87055000       0.82352000       0.53882000 </v>
   <v>       0.37601000       0.99949000       0.30198000 </v>
   <v>       0.37583000       0.33254000       0.30289000 </v>
   <v>       0.37572000       0.66790000       0.30229000 </v>
   <v>       0.87516000       0.00065000       0.29951000 </v>
   <v>       0.87499000       0.33317000       0.29992000 </v>
   <v>       0.87514000       0.66679000       0.29878000 </v>
   <v>       0.38075000       0.00000000       0.14463000 </v>
   <v>       0.38075000       0.33333000       0.14463000 </v>
   <v>       0.38075000       0.66667000       0.14463000 </v>
   <v>       0.86772000       0.00000000       0.14044000 </v>
   <v>       0.86772000       0.33333000       0.14044000 </v>
   <v>       0.86772000       0.66667000       0.14044000 </v>
   <v>       0.37067000       0.99898000       0.46267000 </v>
   <v>       0.36496000       0.33261000       0.45563000 </v>
   <v>       0.36674000       0.66632000       0.45993000 </v>
   <v>       0.87668000       0.99805000       0.45793000 </v>
   <v>       0.87386000       0.33620000       0.45713000 </v>
   <v>       0.88088000       0.66914000       0.45629000 </v>
   <v>       0.62805000       0.16667000       0.06566000 </v>
   <v>       0.62805000       0.50000000       0.06566000 </v>
   <v>       0.62805000       0.83333000       0.06566000 </v>
   <v>       0.12492000       0.16938000       0.37961000 </v>
   <v>       0.12610000       0.49858000       0.37861000 </v>
   <v>       0.12625000       0.83336000       0.37991000 </v>
   <v>       0.62554000       0.16962000       0.38535000 </v>
   <v>       0.62546000       0.49416000       0.38390000 </v>
   <v>       0.62584000       0.83678000       0.38278000 </v>
   <v>       0.12568000       0.16667000       0.21990000 </v>
   <v>       0.12568000       0.50000000       0.21990000 </v>
   <v>       0.12568000       0.83333000       0.21990000 </v>
   <v>       0.62720000       0.16657000       0.22250000 </v>
   <v>       0.62697000       0.50026000       0.22291000 </v>
   <v>       0.62696000       0.83319000       0.22311000 </v>
   <v>       0.14622000       0.17019000       0.54345000 </v>
   <v>       0.13963000       0.50899000       0.54263000 </v>
   <v>       0.13495000       0.82296000       0.53619000 </v>
   <v>       0.21135000       0.33831000       0.76655000 </v>
   <v>       0.01491000       0.35093000       0.62991000 </v>
   <v>       0.07703000       0.33112000       0.69009000 </v>
   <v>       0.00000000       0.00000000       0.21606000 </v>
   <v>       0.00000000       0.33333000       0.21606000 </v>
   <v>       0.00000000       0.66667000       0.21606000 </v>
   <v>       0.49978000       0.00025000       0.22488000 </v>
   <v>       0.50012000       0.33299000       0.22487000 </v>
   <v>       0.49975000       0.66681000       0.22539000 </v>
   <v>       0.00165000       0.99729000       0.53621000 </v>
   <v>       0.99641000       0.33631000       0.53903000 </v>
   <v>       0.00136000       0.67061000       0.53165000 </v>
   <v>       0.24905000       0.16667000       0.14325000 </v>
   <v>       0.24905000       0.50000000       0.14325000 </v>
   <v>       0.24905000       0.83333000       0.14325000 </v>
   <v>       0.75095000       0.16667000       0.14325000 </v>
   <v>       0.75095000       0.50000000       0.14325000 </v>
   <v>       0.75095000       0.83333000       0.14325000 </v>
   <v>       0.24565000       0.16822000       0.45731000 </v>
   <v>       0.24875000       0.50096000       0.45619000 </v>
   <v>       0.24776000       0.83134000       0.45875000 </v>
   <v>       0.75541000       0.16787000       0.46228000 </v>
   <v>       0.75233000       0.50309000       0.46034000 </v>
   <v>       0.75324000       0.83155000       0.46035000 </v>
   <v>       0.24769000       0.16658000       0.30056000 </v>
   <v>       0.24896000       0.49999000       0.30039000 </v>
   <v>       0.24940000       0.83364000       0.30092000 </v>
   <v>       0.75100000       0.16696000       0.30160000 </v>
   <v>       0.75004000       0.49973000       0.30141000 </v>
   <v>       0.75049000       0.83382000       0.30139000 </v>
   <v>       0.50000000       0.00000000       0.07207000 </v>
   <v>       0.50000000       0.33333000       0.07207000 </v>
   <v>       0.50000000       0.66667000       0.07207000 </v>
   <v>       0.99871000       0.00012000       0.37878000 </v>
   <v>       0.99770000       0.33409000       0.37880000 </v>
   <v>       0.99917000       0.66718000       0.37658000 </v>
   <v>       0.49991000       0.00012000       0.38370000 </v>
   <v>       0.49727000       0.33253000       0.38349000 </v>
   <v>       0.50085000       0.66722000       0.38601000 </v>
   <v>       0.50243000       0.05617000       0.53086000 </v>
   <v>       0.51708000       0.22360000       0.61282000 </v>
   <v>       0.51812000       0.34694000       0.54540000 </v>
   <v>       0.32097000       0.18278000       0.58379000 </v>
   <v>       0.32603000       0.31806000       0.65501000 </v>
   <v>       0.30425000       0.44648000       0.57984000 </v>
   <v>       0.21209000       0.32691000       0.72075000 </v>
  </varray>
  <varray name="selective"  type="logical" >
   <v type="logical" >  T T T</v>
   <v type="logical" >  T T T</v>
   <v type="logical" >  T T T</v>
   <v type="logical" >  T T T</v>
   <v type="logical" >  T T T</v>
   <v type="logical" >  T T T</v>
   <v type="logical" >  F F F</v>
   <v type="logical" >  F F F</v>
   <v type="logical" >  F F F</v>
   <v type="logical" >  F F F</v>
   <v type="logical" >  F F F</v>
   <v type="logical" >  F F F</v>
   <v type="logical" >  T T T</v>
   <v type="logical" >  T T T</v>
   <v type="logical" >  T T T</v>
   <v type="logical" >  T T T</v>
   <v type="logical" >  T T T</v>
   <v type="logical" >  T T T</v>
   <v type="logical" >  F F F</v>
   <v type="logical" >  F F F</v>
   <v type="logical" >  F F F</v>
   <v type="logical" >  T T T</v>
   <v type="logical" >  T T T</v>
   <v type="logical" >  T T T</v>
   <v type="logical" >  T T T</v>
   <v type="logical" >  T T T</v>
   <v type="logical" >  T T T</v>
   <v type="logical" >  T T T</v>
   <v type="logical" >  T T T</v>
   <v type="logical" >  T T T</v>
   <v type="logical" >  F F F</v>
   <v type="logical" >  F F F</v>
   <v type="logical" >  F F F</v>
   <v type="logical" >  T T T</v>
   <v type="logical" >  T T T</v>
   <v type="logical" >  T T T</v>
   <v type="logical" >  T T T</v>
   <v type="logical" >  T T T</v>
   <v type="logical" >  T T T</v>
   <v type="logical" >  T T T</v>
   <v type="logical" >  T T T</v>
   <v type="logical" >  T T T</v>
   <v type="logical" >  F F F</v>
   <v type="logical" >  F F F</v>
   <v type="logical" >  F F F</v>
   <v type="logical" >  F F F</v>
   <v type="logical" >  F F F</v>
   <v type="logical" >  F F F</v>
   <v type="logical" >  T T T</v>
   <v type="logical" >  T T T</v>
   <v type="logical" >  T T T</v>
   <v type="logical" >  T T T</v>
   <v type="logical" >  T T T</v>
   <v type="logical" >  T T T</v>
   <v type="logical" >  F F F</v>
   <v type="logical" >  F F F</v>
   <v type="logical" >  F F F</v>
   <v type="logical" >  T T T</v>
   <v type="logical" >  T T T</v>
   <v type="logical" >  T T T</v>
   <v type="logical" >  T T T</v>
   <v type="logical" >  T T T</v>
   <v type="logical" >  T T T</v>
   <v type="logical" >  F F F</v>
   <v type="logical" >  F F F</v>
   <v type="logical" >  F F F</v>
   <v type="logical" >  T T T</v>
   <v type="logical" >  T T T</v>
   <v type="logical" >  T T T</v>
   <v type="logical" >  T T T</v>
   <v type="logical" >  T T T</v>
   <v type="logical" >  T T T</v>
   <v type="logical" >  T T T</v>
   <v type="logical" >  T T T</v>
   <v type="logical" >  T T T</v>
   <v type="logical" >  F F F</v>
   <v type="logical" >  F F F</v>
   <v type="logical" >  F F F</v>
   <v type="logical" >  T T T</v>
   <v type="logical" >  T T T</v>
   <v type="logical" >  T T T</v>
   <v type="logical" >  T T T</v>
   <v type="logical" >  T T T</v>
   <v type="logical" >  T T T</v>
   <v type="logical" >  F F F</v>
   <v type="logical" >  F F F</v>
   <v type="logical" >  F F F</v>
   <v type="logical" >  F F F</v>
   <v type="logical" >  F F F</v>
   <v type="logical" >  F F F</v>
   <v type="logical" >  T T T</v>
   <v type="logical" >  T T T</v>
   <v type="logical" >  T T T</v>
   <v type="logical" >  T T T</v>
   <v type="logical" >  T T T</v>
   <v type="logical" >  T T T</v>
   <v type="logical" >  T T T</v>
   <v type="logical" >  T T T</v>
   <v type="logical" >  T T T</v>
   <v type="logical" >  T T T</v>
   <v type="logical" >  T T T</v>
   <v type="logical" >  T T T</v>
   <v type="logical" >  F F F</v>
   <v type="logical" >  F F F</v>
   <v type="logical" >  F F F</v>
   <v type="logical" >  T T T</v>
   <v type="logical" >  T T T</v>
   <v type="logical" >  T T T</v>
   <v type="logical" >  T T T</v>
   <v type="logical" >  T T T</v>
   <v type="logical" >  T T T</v>
   <v type="logical" >  T T T</v>
   <v type="logical" >  T T T</v>
   <v type="logical" >  T T T</v>
   <v type="logical" >  T T T</v>
   <v type="logical" >  T T T</v>
   <v type="logical" >  T T T</v>
   <v type="logical" >  T T T</v>
  </varray>
  <nose>
   <v>      -3.00000000       0.00000000       0.00010000       0.00010000 </v>
  </nose>
 </structure>
 <calculation>
  <scstep>
   <time name="dav">  213.95  214.02</time>
   <time name="total">  224.31  224.41</time>
   <energy>
    <i name="alphaZ">   2847.48764424</i>
    <i name="ewald"> 220163.48075563</i>
    <i name="hartreedc">-291715.61454113</i>
    <i name="XCdc">   2386.56148800</i>
    <i name="pawpsdc">  45882.72438357</i>
    <i name="pawaedc"> -45101.68124385</i>
    <i name="eentropy">      0.00795578</i>
    <i name="bandstr">    521.79998949</i>
    <i name="atom">  76450.79955823</i>
    <i name="e_fr_energy">  11435.56598996</i>
    <i name="e_wo_entrp">  11435.55803418</i>
    <i name="e_0_energy">  11435.56333804</i>
   </energy>
  </scstep>
  <scstep>
   <time name="dav">  252.33  252.43</time>
   <time name="total">  252.38  252.49</time>
   <energy>
    <i name="e_fr_energy">   2606.53750353</i>
    <i name="e_wo_entrp">   2606.53566884</i>
    <i name="e_0_energy">   2606.53689197</i>
   </energy>
  </scstep>
  <scstep>
   <time name="dav">  256.02  256.09</time>
   <time name="total">  256.08  256.16</time>
   <energy>
    <i name="e_fr_energy">   -763.19691709</i>
    <i name="e_wo_entrp">   -763.19594557</i>
    <i name="e_0_energy">   -763.19659325</i>
   </energy>
  </scstep>
  <scstep>
   <time name="dav">  289.67  289.74</time>
   <time name="total">  289.72  289.80</time>
   <energy>
    <i name="e_fr_energy">  -1108.34424248</i>
    <i name="e_wo_entrp">  -1108.34436726</i>
    <i name="e_0_energy">  -1108.34428407</i>
   </energy>
  </scstep>
  <scstep>
   <time name="dav">  326.02  326.10</time>
   <time name="total">  337.01  337.10</time>
   <energy>
    <i name="e_fr_energy">  -1126.10380709</i>
    <i name="e_wo_entrp">  -1126.11772942</i>
    <i name="e_0_energy">  -1126.10844787</i>
   </energy>
  </scstep>
  <scstep>
   <time name="diag">   38.37   38.39</time>
   <time name="diis">  119.11  119.16</time>
   <time name="orth">    6.79    6.80</time>
   <time name="total">  186.77  186.86</time>
   <energy>
    <i name="e_fr_energy">  -1179.82233327</i>
    <i name="e_wo_entrp">  -1179.83751504</i>
    <i name="e_0_energy">  -1179.82739386</i>
   </energy>
  </scstep>
  <scstep>
   <time name="diag">   37.89   37.90</time>
   <time name="diis">  119.53  119.58</time>
   <time name="orth">    6.76    6.77</time>
   <time name="total">  185.80  185.88</time>
   <energy>
    <i name="e_fr_energy">  -3635.50406192</i>
    <i name="e_wo_entrp">  -3635.48276348</i>
    <i name="e_0_energy">  -3635.49696244</i>
   </energy>
  </scstep>
  <scstep>
   <time name="diag">   39.14   39.15</time>
   <time name="diis">   97.02   97.05</time>
   <time name="orth">    7.09    7.09</time>
   <time name="total">  165.12  165.17</time>
   <energy>
    <i name="e_fr_energy">  -1077.05922394</i>
    <i name="e_wo_entrp">  -1077.06504439</i>
    <i name="e_0_energy">  -1077.06116409</i>
   </energy>
  </scstep>
  <scstep>
   <time name="diag">   38.89   38.90</time>
   <time name="diis">  106.47  106.50</time>
   <time name="orth">    7.10    7.10</time>
   <time name="total">  174.19  174.24</time>
   <energy>
    <i name="e_fr_energy">  -1042.11351125</i>
    <i name="e_wo_entrp">  -1042.11848095</i>
    <i name="e_0_energy">  -1042.11516781</i>
   </energy>
  </scstep>
  <scstep>
   <time name="diag">   38.23   38.24</time>
   <time name="diis">  105.03  105.06</time>
   <time name="orth">    6.98    6.98</time>
   <time name="total">  172.57  172.63</time>
   <energy>
    <i name="e_fr_energy">   -984.34996587</i>
    <i name="e_wo_entrp">   -984.35575455</i>
    <i name="e_0_energy">   -984.35189543</i>
   </energy>
  </scstep>
  <scstep>
   <time name="diag">   39.41   39.42</time>
   <time name="diis">  108.80  108.83</time>
   <time name="orth">    7.21    7.21</time>
   <time name="total">  176.59  176.64</time>
   <energy>
    <i name="e_fr_energy">   -961.56157366</i>
    <i name="e_wo_entrp">   -961.56444280</i>
    <i name="e_0_energy">   -961.56253004</i>
   </energy>
  </scstep>
  <scstep>
   <time name="diag">   40.23   40.24</time>
   <time name="diis">  109.89  109.92</time>
   <time name="orth">    7.22    7.22</time>
   <time name="total">  178.95  179.00</time>
   <energy>
    <i name="e_fr_energy">   -942.87585158</i>
    <i name="e_wo_entrp">   -942.87732747</i>
    <i name="e_0_energy">   -942.87634354</i>
   </energy>
  </scstep>
  <scstep>
   <time name="diag">   38.89   38.90</time>
   <time name="diis">  100.04  100.06</time>
   <time name="orth">    6.99    6.99</time>
   <time name="total">  168.09  168.14</time>
   <energy>
    <i name="e_fr_energy">   -927.69561344</i>
    <i name="e_wo_entrp">   -927.68589317</i>
    <i name="e_0_energy">   -927.69237335</i>
   </energy>
  </scstep>
  <scstep>
   <time name="diag">   38.73   38.74</time>
   <time name="diis">  109.79  109.82</time>
   <time name="orth">    7.16    7.17</time>
   <time name="total">  178.67  178.72</time>
   <energy>
    <i name="e_fr_energy">   -923.75092195</i>
    <i name="e_wo_entrp">   -923.74999111</i>
    <i name="e_0_energy">   -923.75061167</i>
   </energy>
  </scstep>
  <scstep>
   <time name="diag">   38.41   38.42</time>
   <time name="diis">  108.82  108.84</time>
   <time name="orth">    6.98    6.98</time>
   <time name="total">  177.45  177.51</time>
   <energy>
    <i name="e_fr_energy">   -917.78956798</i>
    <i name="e_wo_entrp">   -917.79312556</i>
    <i name="e_0_energy">   -917.79075384</i>
   </energy>
  </scstep>
  <scstep>
   <time name="diag">   38.68   38.69</time>
   <time name="diis">  106.99  107.01</time>
   <time name="orth">    7.11    7.11</time>
   <time name="total">  176.10  176.15</time>
   <energy>
    <i name="e_fr_energy">   -916.06330292</i>
    <i name="e_wo_entrp">   -916.05640457</i>
    <i name="e_0_energy">   -916.06100347</i>
   </energy>
  </scstep>
  <scstep>
   <time name="diag">   38.55   38.57</time>
   <time name="diis">  100.15  100.18</time>
   <time name="orth">    7.09    7.10</time>
   <time name="total">  169.40  169.47</time>
   <energy>
    <i name="e_fr_energy">   -913.99504168</i>
    <i name="e_wo_entrp">   -914.00130080</i>
    <i name="e_0_energy">   -913.99712805</i>
   </energy>
  </scstep>
  <scstep>
   <time name="diag">   38.78   38.79</time>
   <time name="diis">  106.06  106.09</time>
   <time name="orth">    7.12    7.12</time>
   <time name="total">  175.61  175.66</time>
   <energy>
    <i name="e_fr_energy">   -912.88878495</i>
    <i name="e_wo_entrp">   -912.88489160</i>
    <i name="e_0_energy">   -912.88748717</i>
   </energy>
  </scstep>
  <scstep>
   <time name="diag">   39.10   39.11</time>
   <time name="diis">  107.97  107.99</time>
   <time name="orth">    6.99    6.99</time>
   <time name="total">  178.18  178.22</time>
   <energy>
    <i name="e_fr_energy">   -911.74537337</i>
    <i name="e_wo_entrp">   -911.74586152</i>
    <i name="e_0_energy">   -911.74553609</i>
   </energy>
  </scstep>
  <scstep>
   <time name="diag">   38.64   38.65</time>
   <time name="diis">  104.93  104.95</time>
   <time name="orth">    6.95    6.95</time>
   <time name="total">  174.89  174.94</time>
   <energy>
    <i name="e_fr_energy">   -910.95100360</i>
    <i name="e_wo_entrp">   -910.95572687</i>
    <i name="e_0_energy">   -910.95257802</i>
   </energy>
  </scstep>
  <scstep>
   <time name="diag">   38.65   38.66</time>
   <time name="diis">  104.38  104.42</time>
   <time name="orth">    6.90    6.90</time>
   <time name="total">  174.22  174.28</time>
   <energy>
    <i name="e_fr_energy">   -910.58563895</i>
    <i name="e_wo_entrp">   -910.58930252</i>
    <i name="e_0_energy">   -910.58686014</i>
   </energy>
  </scstep>
  <scstep>
   <time name="diag">   39.41   39.42</time>
   <time name="diis">  101.32  101.35</time>
   <time name="orth">    6.95    6.95</time>
   <time name="total">  171.80  171.84</time>
   <energy>
    <i name="e_fr_energy">   -910.35078696</i>
    <i name="e_wo_entrp">   -910.34979328</i>
    <i name="e_0_energy">   -910.35045573</i>
   </energy>
  </scstep>
  <scstep>
   <time name="diag">   38.87   38.88</time>
   <time name="diis">   99.23   99.25</time>
   <time name="orth">    6.87    6.87</time>
   <time name="total">  169.05  169.10</time>
   <energy>
    <i name="e_fr_energy">   -909.47532251</i>
    <i name="e_wo_entrp">   -909.48267443</i>
    <i name="e_0_energy">   -909.47777315</i>
   </energy>
  </scstep>
  <scstep>
   <time name="diag">   38.98   38.99</time>
   <time name="diis">  102.55  102.57</time>
   <time name="orth">    6.97    6.97</time>
   <time name="total">  172.99  173.04</time>
   <energy>
    <i name="e_fr_energy">   -908.79336329</i>
    <i name="e_wo_entrp">   -908.79762083</i>
    <i name="e_0_energy">   -908.79478247</i>
   </energy>
  </scstep>
  <scstep>
   <time name="diag">   39.14   39.16</time>
   <time name="diis">   97.25   97.28</time>
   <time name="orth">    6.79    6.79</time>
   <time name="total">  167.05  167.13</time>
   <energy>
    <i name="e_fr_energy">   -908.71640529</i>
    <i name="e_wo_entrp">   -908.70737814</i>
    <i name="e_0_energy">   -908.71339624</i>
   </energy>
  </scstep>
  <scstep>
   <time name="diag">   39.75   39.76</time>
   <time name="diis">  101.76  101.78</time>
   <time name="orth">    6.99    7.00</time>
   <time name="total">  172.74  172.78</time>
   <energy>
    <i name="e_fr_energy">   -907.55104015</i>
    <i name="e_wo_entrp">   -907.55146718</i>
    <i name="e_0_energy">   -907.55118249</i>
   </energy>
  </scstep>
  <scstep>
   <time name="diag">   39.52   39.53</time>
   <time name="diis">  105.06  105.09</time>
   <time name="orth">    7.24    7.25</time>
   <time name="total">  176.28  176.33</time>
   <energy>
    <i name="e_fr_energy">   -907.75802555</i>
    <i name="e_wo_entrp">   -907.74633266</i>
    <i name="e_0_energy">   -907.75412792</i>
   </energy>
  </scstep>
  <scstep>
   <time name="diag">   39.28   39.29</time>
   <time name="diis">   97.63   97.65</time>
   <time name="orth">    6.95    6.95</time>
   <time name="total">  167.96  168.00</time>
   <energy>
    <i name="e_fr_energy">   -907.15319596</i>
    <i name="e_wo_entrp">   -907.15818856</i>
    <i name="e_0_energy">   -907.15486016</i>
   </energy>
  </scstep>
  <scstep>
   <time name="diag">   39.42   39.44</time>
   <time name="diis">  108.08  108.11</time>
   <time name="orth">    7.08    7.08</time>
   <time name="total">  178.79  178.86</time>
   <energy>
    <i name="e_fr_energy">   -906.67863422</i>
    <i name="e_wo_entrp">   -906.68682663</i>
    <i name="e_0_energy">   -906.68136502</i>
   </energy>
  </scstep>
  <scstep>
   <time name="diag">   39.49   39.51</time>
   <time name="diis">  108.11  108.16</time>
   <time name="orth">    7.12    7.12</time>
   <time name="total">  178.58  178.66</time>
   <energy>
    <i name="e_fr_energy">   -905.66023981</i>
    <i name="e_wo_entrp">   -905.66313929</i>
    <i name="e_0_energy">   -905.66120631</i>
   </energy>
  </scstep>
  <scstep>
   <time name="diag">   39.60   39.61</time>
   <time name="diis">  107.70  107.74</time>
   <time name="orth">    7.08    7.08</time>
   <time name="total">  176.97  177.03</time>
   <energy>
    <i name="e_fr_energy">   -904.63129123</i>
    <i name="e_wo_entrp">   -904.61593053</i>
    <i name="e_0_energy">   -904.62617100</i>
   </energy>
  </scstep>
  <scstep>
   <time name="diag">   39.90   39.91</time>
   <time name="diis">  100.90  100.93</time>
   <time name="orth">    7.19    7.19</time>
   <time name="total">  171.56  171.62</time>
   <energy>
    <i name="e_fr_energy">   -904.72697685</i>
    <i name="e_wo_entrp">   -904.71302262</i>
    <i name="e_0_energy">   -904.72232544</i>
   </energy>
  </scstep>
  <scstep>
   <time name="diag">   40.01   40.02</time>
   <time name="diis">  111.74  111.80</time>
   <time name="orth">    7.22    7.23</time>
   <time name="total">  182.59  182.67</time>
   <energy>
    <i name="e_fr_energy">   -904.75637074</i>
    <i name="e_wo_entrp">   -904.74237729</i>
    <i name="e_0_energy">   -904.75170626</i>
   </energy>
  </scstep>
  <scstep>
   <time name="diag">   39.23   39.24</time>
   <time name="diis">  103.15  103.18</time>
   <time name="orth">    6.89    6.90</time>
   <time name="total">  172.74  172.79</time>
   <energy>
    <i name="e_fr_energy">   -904.84264052</i>
    <i name="e_wo_entrp">   -904.83317197</i>
    <i name="e_0_energy">   -904.83948434</i>
   </energy>
  </scstep>
  <scstep>
   <time name="diag">   39.37   39.38</time>
   <time name="diis">  105.61  105.63</time>
   <time name="orth">    7.06    7.06</time>
   <time name="total">  175.63  175.67</time>
   <energy>
    <i name="e_fr_energy">   -904.93948236</i>
    <i name="e_wo_entrp">   -904.93023069</i>
    <i name="e_0_energy">   -904.93639847</i>
   </energy>
  </scstep>
  <scstep>
   <time name="diag">   39.12   39.13</time>
   <time name="diis">  104.40  104.43</time>
   <time name="orth">    6.96    6.97</time>
   <time name="total">  174.33  174.40</time>
   <energy>
    <i name="e_fr_energy">   -904.99386175</i>
    <i name="e_wo_entrp">   -904.99084245</i>
    <i name="e_0_energy">   -904.99285532</i>
   </energy>
  </scstep>
  <scstep>
   <time name="diag">   39.32   39.34</time>
   <time name="diis">  108.52  108.57</time>
   <time name="orth">    6.90    6.90</time>
   <time name="total">  178.03  178.11</time>
   <energy>
    <i name="e_fr_energy">   -904.99154843</i>
    <i name="e_wo_entrp">   -904.98790397</i>
    <i name="e_0_energy">   -904.99033361</i>
   </energy>
  </scstep>
  <scstep>
   <time name="diag">   39.20   39.21</time>
   <time name="diis">  105.94  105.97</time>
   <time name="orth">    7.17    7.18</time>
   <time name="total">  176.13  176.18</time>
   <energy>
    <i name="e_fr_energy">   -905.06000693</i>
    <i name="e_wo_entrp">   -905.06243017</i>
    <i name="e_0_energy">   -905.06081468</i>
   </energy>
  </scstep>
  <scstep>
   <time name="diag">   39.15   39.16</time>
   <time name="diis">   93.48   93.50</time>
   <time name="orth">    7.30    7.30</time>
   <time name="total">  163.77  163.81</time>
   <energy>
    <i name="e_fr_energy">   -905.03607694</i>
    <i name="e_wo_entrp">   -905.03982778</i>
    <i name="e_0_energy">   -905.03732722</i>
   </energy>
  </scstep>
  <scstep>
   <time name="diag">   39.01   39.02</time>
   <time name="diis">  105.33  105.38</time>
   <time name="orth">    6.98    6.98</time>
   <time name="total">  174.91  174.98</time>
   <energy>
    <i name="e_fr_energy">   -905.02054275</i>
    <i name="e_wo_entrp">   -905.01609942</i>
    <i name="e_0_energy">   -905.01906164</i>
   </energy>
  </scstep>
  <scstep>
   <time name="diag">   39.23   39.24</time>
   <time name="diis">   96.41   96.43</time>
   <time name="orth">    6.92    6.92</time>
   <time name="total">  166.29  166.34</time>
   <energy>
    <i name="e_fr_energy">   -905.04540675</i>
    <i name="e_wo_entrp">   -905.03662989</i>
    <i name="e_0_energy">   -905.04248113</i>
   </energy>
  </scstep>
  <scstep>
   <time name="diag">   39.74   39.75</time>
   <time name="diis">   93.78   93.80</time>
   <time name="orth">    7.07    7.08</time>
   <time name="total">  164.16  164.20</time>
   <energy>
    <i name="e_fr_energy">   -905.12626896</i>
    <i name="e_wo_entrp">   -905.12614220</i>
    <i name="e_0_energy">   -905.12622671</i>
   </energy>
  </scstep>
  <scstep>
   <time name="diag">   39.59   39.62</time>
   <time name="diis">   89.97   89.99</time>
   <time name="orth">    7.08    7.08</time>
   <time name="total">  160.22  160.27</time>
   <energy>
    <i name="e_fr_energy">   -905.11307472</i>
    <i name="e_wo_entrp">   -905.11160762</i>
    <i name="e_0_energy">   -905.11258568</i>
   </energy>
  </scstep>
  <scstep>
   <time name="diag">   39.32   39.33</time>
   <time name="diis">   87.55   87.57</time>
   <time name="orth">    7.05    7.05</time>
   <time name="total">  157.38  157.42</time>
   <energy>
    <i name="e_fr_energy">   -905.11356249</i>
    <i name="e_wo_entrp">   -905.11219601</i>
    <i name="e_0_energy">   -905.11310699</i>
   </energy>
  </scstep>
  <scstep>
   <time name="diag">   38.92   38.93</time>
   <time name="diis">   99.53   99.55</time>
   <time name="orth">    7.21    7.21</time>
   <time name="total">  169.66  169.71</time>
   <energy>
    <i name="e_fr_energy">   -905.14820308</i>
    <i name="e_wo_entrp">   -905.14635472</i>
    <i name="e_0_energy">   -905.14758696</i>
   </energy>
  </scstep>
  <scstep>
   <time name="diag">   38.80   38.82</time>
   <time name="diis">   98.00   98.04</time>
   <time name="orth">    6.95    6.95</time>
   <time name="total">  166.66  166.72</time>
   <energy>
    <i name="e_fr_energy">   -905.16014617</i>
    <i name="e_wo_entrp">   -905.16387440</i>
    <i name="e_0_energy">   -905.16138892</i>
   </energy>
  </scstep>
  <scstep>
   <time name="diag">   38.57   38.58</time>
   <time name="diis">  102.16  102.19</time>
   <time name="orth">    7.00    7.00</time>
   <time name="total">  171.34  171.39</time>
   <energy>
    <i name="e_fr_energy">   -905.28713382</i>
    <i name="e_wo_entrp">   -905.27731874</i>
    <i name="e_0_energy">   -905.28386213</i>
   </energy>
  </scstep>
  <scstep>
   <time name="diag">   39.47   39.48</time>
   <time name="diis">   95.53   95.56</time>
   <time name="orth">    7.07    7.07</time>
   <time name="total">  165.41  165.46</time>
   <energy>
    <i name="e_fr_energy">   -905.37917489</i>
    <i name="e_wo_entrp">   -905.37383883</i>
    <i name="e_0_energy">   -905.37739621</i>
   </energy>
  </scstep>
  <scstep>
   <time name="diag">   39.08   39.09</time>
   <time name="diis">   86.84   86.86</time>
   <time name="orth">    6.92    6.92</time>
   <time name="total">  155.59  155.62</time>
   <energy>
    <i name="e_fr_energy">   -905.33465849</i>
    <i name="e_wo_entrp">   -905.32947201</i>
    <i name="e_0_energy">   -905.33292967</i>
   </energy>
  </scstep>
  <scstep>
   <time name="diag">   39.27   39.28</time>
   <time name="diis">  104.88  104.90</time>
   <time name="orth">    7.28    7.29</time>
   <time name="total">  174.60  174.64</time>
   <energy>
    <i name="e_fr_energy">   -905.40815411</i>
    <i name="e_wo_entrp">   -905.39971236</i>
    <i name="e_0_energy">   -905.40534019</i>
   </energy>
  </scstep>
  <scstep>
   <time name="diag">   39.99   40.00</time>
   <time name="diis">  103.55  103.58</time>
   <time name="orth">    7.30    7.30</time>
   <time name="total">  174.20  174.25</time>
   <energy>
    <i name="e_fr_energy">   -905.72742370</i>
    <i name="e_wo_entrp">   -905.72101110</i>
    <i name="e_0_energy">   -905.72528617</i>
   </energy>
  </scstep>
  <scstep>
   <time name="diag">   39.60   39.61</time>
   <time name="diis">  101.65  101.67</time>
   <time name="orth">    7.22    7.22</time>
   <time name="total">  171.55  171.60</time>
   <energy>
    <i name="e_fr_energy">   -905.19287259</i>
    <i name="e_wo_entrp">   -905.19226832</i>
    <i name="e_0_energy">   -905.19267117</i>
   </energy>
  </scstep>
  <scstep>
   <time name="diag">   38.97   38.98</time>
   <time name="diis">  107.01  107.04</time>
   <time name="orth">    7.13    7.13</time>
   <time name="total">  176.45  176.49</time>
   <energy>
    <i name="e_fr_energy">   -905.20734476</i>
    <i name="e_wo_entrp">   -905.20616821</i>
    <i name="e_0_energy">   -905.20695258</i>
   </energy>
  </scstep>
  <scstep>
   <time name="diag">   40.03   40.04</time>
   <time name="diis">   99.26   99.28</time>
   <time name="orth">    7.23    7.24</time>
   <time name="total">  169.70  169.74</time>
   <energy>
    <i name="e_fr_energy">   -905.21647263</i>
    <i name="e_wo_entrp">   -905.21662472</i>
    <i name="e_0_energy">   -905.21652333</i>
   </energy>
  </scstep>
  <scstep>
   <time name="diag">   39.74   39.75</time>
   <time name="diis">  101.99  102.01</time>
   <time name="orth">    7.22    7.22</time>
   <time name="total">  172.02  172.06</time>
   <energy>
    <i name="e_fr_energy">   -905.33196996</i>
    <i name="e_wo_entrp">   -905.33155857</i>
    <i name="e_0_energy">   -905.33183283</i>
   </energy>
  </scstep>
  <scstep>
   <time name="diag">   39.34   39.35</time>
   <time name="diis">  102.19  102.21</time>
   <time name="orth">    7.22    7.22</time>
   <time name="total">  171.13  171.19</time>
   <energy>
    <i name="e_fr_energy">   -905.31259041</i>
    <i name="e_wo_entrp">   -905.31051236</i>
    <i name="e_0_energy">   -905.31189773</i>
   </energy>
  </scstep>
  <scstep>
   <time name="diag">   40.45   40.46</time>
   <time name="diis">   94.45   94.47</time>
   <time name="orth">    7.32    7.32</time>
   <time name="total">  165.99  166.04</time>
   <energy>
    <i name="e_fr_energy">   -905.21649295</i>
    <i name="e_wo_entrp">   -905.21297184</i>
    <i name="e_0_energy">   -905.21531925</i>
   </energy>
  </scstep>
  <scstep>
   <time name="diag">   40.34   40.35</time>
   <time name="diis">  104.63  104.66</time>
   <time name="orth">    7.12    7.12</time>
   <time name="total">  175.26  175.30</time>
   <energy>
    <i name="e_fr_energy">   -905.14035281</i>
    <i name="e_wo_entrp">   -905.13373978</i>
    <i name="e_0_energy">   -905.13814847</i>
   </energy>
  </scstep>
  <scstep>
   <time name="diag">   39.05   39.06</time>
   <time name="diis">   96.52   96.54</time>
   <time name="orth">    7.12    7.12</time>
   <time name="total">  165.70  165.75</time>
   <energy>
    <i name="e_fr_energy">   -905.23950901</i>
    <i name="e_wo_entrp">   -905.23561068</i>
    <i name="e_0_energy">   -905.23820957</i>
   </energy>
  </scstep>
  <scstep>
   <time name="diag">   39.92   39.93</time>
   <time name="diis">   90.25   90.27</time>
   <time name="orth">    7.47    7.47</time>
   <time name="total">  161.11  161.15</time>
   <energy>
    <i name="e_fr_energy">   -905.24522750</i>
    <i name="e_wo_entrp">   -905.24142772</i>
    <i name="e_0_energy">   -905.24396091</i>
   </energy>
  </scstep>
  <scstep>
   <time name="diag">   39.69   39.71</time>
   <time name="diis">  104.00  104.04</time>
   <time name="orth">    7.15    7.15</time>
   <time name="total">  173.94  174.02</time>
   <energy>
    <i name="e_fr_energy">   -905.21838111</i>
    <i name="e_wo_entrp">   -905.22423722</i>
    <i name="e_0_energy">   -905.22033315</i>
   </energy>
  </scstep>
  <scstep>
   <time name="diag">   39.78   39.79</time>
   <time name="diis">   99.63   99.67</time>
   <time name="orth">    7.15    7.15</time>
   <time name="total">  169.27  169.33</time>
   <energy>
    <i name="e_fr_energy">   -905.19459116</i>
    <i name="e_wo_entrp">   -905.19874247</i>
    <i name="e_0_energy">   -905.19597493</i>
   </energy>
  </scstep>
  <scstep>
   <time name="diag">   39.38   39.39</time>
   <time name="diis">  110.62  110.64</time>
   <time name="orth">    7.16    7.16</time>
   <time name="total">  179.78  179.83</time>
   <energy>
    <i name="e_fr_energy">   -905.19354174</i>
    <i name="e_wo_entrp">   -905.19626928</i>
    <i name="e_0_energy">   -905.19445092</i>
   </energy>
  </scstep>
  <scstep>
   <time name="diag">   39.83   39.84</time>
   <time name="diis">  105.03  105.06</time>
   <time name="orth">    7.50    7.50</time>
   <time name="total">  175.65  175.70</time>
   <energy>
    <i name="e_fr_energy">   -905.26481248</i>
    <i name="e_wo_entrp">   -905.27180487</i>
    <i name="e_0_energy">   -905.26714327</i>
   </energy>
  </scstep>
  <scstep>
   <time name="diag">   39.98   39.99</time>
   <time name="diis">  101.31  101.33</time>
   <time name="orth">    7.09    7.10</time>
   <time name="total">  171.32  171.37</time>
   <energy>
    <i name="e_fr_energy">   -905.25080759</i>
    <i name="e_wo_entrp">   -905.25773074</i>
    <i name="e_0_energy">   -905.25311530</i>
   </energy>
  </scstep>
  <scstep>
   <time name="diag">   39.37   39.38</time>
   <time name="diis">  103.02  103.04</time>
   <time name="orth">    7.13    7.13</time>
   <time name="total">  171.84  171.88</time>
   <energy>
    <i name="e_fr_energy">   -905.56329421</i>
    <i name="e_wo_entrp">   -905.56760945</i>
    <i name="e_0_energy">   -905.56473262</i>
   </energy>
  </scstep>
  <scstep>
   <time name="diag">   39.67   39.69</time>
   <time name="diis">   99.98  100.01</time>
   <time name="orth">    6.90    6.91</time>
   <time name="total">  168.78  168.84</time>
   <energy>
    <i name="e_fr_energy">   -905.24240442</i>
    <i name="e_wo_entrp">   -905.23535903</i>
    <i name="e_0_energy">   -905.24005596</i>
   </energy>
  </scstep>
  <scstep>
   <time name="diag">   38.74   38.75</time>
   <time name="diis">  101.06  101.09</time>
   <time name="orth">    7.12    7.12</time>
   <time name="total">  170.46  170.51</time>
   <energy>
    <i name="e_fr_energy">   -905.15306070</i>
    <i name="e_wo_entrp">   -905.14516261</i>
    <i name="e_0_energy">   -905.15042800</i>
   </energy>
  </scstep>
  <scstep>
   <time name="diag">   39.36   39.37</time>
   <time name="diis">   94.60   94.63</time>
   <time name="orth">    6.91    6.91</time>
   <time name="total">  163.75  163.80</time>
   <energy>
    <i name="e_fr_energy">   -905.16627360</i>
    <i name="e_wo_entrp">   -905.16155674</i>
    <i name="e_0_energy">   -905.16470131</i>
   </energy>
  </scstep>
  <scstep>
   <time name="diag">   38.78   38.79</time>
   <time name="diis">  101.02  101.04</time>
   <time name="orth">    6.82    6.83</time>
   <time name="total">  169.37  169.41</time>
   <energy>
    <i name="e_fr_energy">   -905.16889572</i>
    <i name="e_wo_entrp">   -905.15847779</i>
    <i name="e_0_energy">   -905.16542308</i>
   </energy>
  </scstep>
  <scstep>
   <time name="diag">   38.94   38.95</time>
   <time name="diis">  102.78  102.81</time>
   <time name="orth">    6.94    6.94</time>
   <time name="total">  171.39  171.44</time>
   <energy>
    <i name="e_fr_energy">   -905.23788300</i>
    <i name="e_wo_entrp">   -905.23069656</i>
    <i name="e_0_energy">   -905.23548752</i>
   </energy>
  </scstep>
  <scstep>
   <time name="diag">   38.53   38.54</time>
   <time name="diis">  101.38  101.41</time>
   <time name="orth">    6.92    6.92</time>
   <time name="total">  169.31  169.35</time>
   <energy>
    <i name="e_fr_energy">   -905.27819491</i>
    <i name="e_wo_entrp">   -905.27258084</i>
    <i name="e_0_energy">   -905.27632356</i>
   </energy>
  </scstep>
  <scstep>
   <time name="diag">   38.75   38.76</time>
   <time name="diis">   95.91   95.93</time>
   <time name="orth">    6.87    6.88</time>
   <time name="total">  163.84  163.88</time>
   <energy>
    <i name="e_fr_energy">   -905.37441290</i>
    <i name="e_wo_entrp">   -905.37760002</i>
    <i name="e_0_energy">   -905.37547527</i>
   </energy>
  </scstep>
  <scstep>
   <time name="diag">   38.96   38.97</time>
   <time name="diis">   97.69   97.71</time>
   <time name="orth">    6.83    6.83</time>
   <time name="total">  165.42  165.46</time>
   <energy>
    <i name="e_fr_energy">   -905.46766873</i>
    <i name="e_wo_entrp">   -905.47058474</i>
    <i name="e_0_energy">   -905.46864073</i>
   </energy>
  </scstep>
  <scstep>
   <time name="diag">   38.94   38.94</time>
   <time name="diis">  104.20  104.22</time>
   <time name="orth">    6.88    6.88</time>
   <time name="total">  172.00  172.04</time>
   <energy>
    <i name="e_fr_energy">   -905.47371904</i>
    <i name="e_wo_entrp">   -905.47562944</i>
    <i name="e_0_energy">   -905.47435584</i>
   </energy>
  </scstep>
  <scstep>
   <time name="diag">   38.69   38.70</time>
   <time name="diis">   97.32   97.34</time>
   <time name="orth">    6.81    6.81</time>
   <time name="total">  164.83  164.88</time>
   <energy>
    <i name="e_fr_energy">   -905.62928324</i>
    <i name="e_wo_entrp">   -905.61746382</i>
    <i name="e_0_energy">   -905.62534343</i>
   </energy>
  </scstep>
  <scstep>
   <time name="diag">   38.31   38.32</time>
   <time name="diis">   92.52   92.54</time>
   <time name="orth">    7.10    7.10</time>
   <time name="total">  159.96  160.00</time>
   <energy>
    <i name="e_fr_energy">   -905.49717974</i>
    <i name="e_wo_entrp">   -905.49711666</i>
    <i name="e_0_energy">   -905.49715872</i>
   </energy>
  </scstep>
  <scstep>
   <time name="diag">   38.94   38.95</time>
   <time name="diis">   97.52   97.55</time>
   <time name="orth">    6.81    6.81</time>
   <time name="total">  165.78  165.82</time>
   <energy>
    <i name="e_fr_energy">   -905.52882928</i>
    <i name="e_wo_entrp">   -905.52984894</i>
    <i name="e_0_energy">   -905.52916917</i>
   </energy>
  </scstep>
  <scstep>
   <time name="diag">   39.06   39.06</time>
   <time name="diis">   98.31   98.34</time>
   <time name="orth">    7.07    7.07</time>
   <time name="total">  167.12  167.17</time>
   <energy>
    <i name="e_fr_energy">   -905.46800937</i>
    <i name="e_wo_entrp">   -905.47116447</i>
    <i name="e_0_energy">   -905.46906107</i>
   </energy>
  </scstep>
  <scstep>
   <time name="diag">   38.94   38.95</time>
   <time name="diis">   95.25   95.27</time>
   <time name="orth">    6.75    6.75</time>
   <time name="total">  163.25  163.30</time>
   <energy>
    <i name="e_fr_energy">   -905.45508734</i>
    <i name="e_wo_entrp">   -905.45659684</i>
    <i name="e_0_energy">   -905.45559051</i>
   </energy>
  </scstep>
  <scstep>
   <time name="diag">   38.61   38.62</time>
   <time name="diis">   95.43   95.45</time>
   <time name="orth">    6.84    6.84</time>
   <time name="total">  163.61  163.66</time>
   <energy>
    <i name="e_fr_energy">   -905.58559961</i>
    <i name="e_wo_entrp">   -905.59118243</i>
    <i name="e_0_energy">   -905.58746055</i>
   </energy>
  </scstep>
  <scstep>
   <time name="diag">   38.75   38.76</time>
   <time name="diis">  100.64  100.67</time>
   <time name="orth">    6.80    6.80</time>
   <time name="total">  168.64  168.68</time>
   <energy>
    <i name="e_fr_energy">   -905.70472282</i>
    <i name="e_wo_entrp">   -905.70673891</i>
    <i name="e_0_energy">   -905.70539485</i>
   </energy>
  </scstep>
  <scstep>
   <time name="diag">   38.84   38.85</time>
   <time name="diis">  102.13  102.18</time>
   <time name="orth">    6.79    6.80</time>
   <time name="total">  170.29  170.37</time>
   <energy>
    <i name="e_fr_energy">   -905.81554809</i>
    <i name="e_wo_entrp">   -905.81914867</i>
    <i name="e_0_energy">   -905.81674828</i>
   </energy>
  </scstep>
  <scstep>
   <time name="diag">   38.91   38.92</time>
   <time name="diis">   95.14   95.16</time>
   <time name="orth">    6.78    6.78</time>
   <time name="total">  163.61  163.66</time>
   <energy>
    <i name="e_fr_energy">   -905.91597981</i>
    <i name="e_wo_entrp">   -905.92337839</i>
    <i name="e_0_energy">   -905.91844601</i>
   </energy>
  </scstep>
  <scstep>
   <time name="diag">   39.11   39.12</time>
   <time name="diis">   87.97   87.99</time>
   <time name="orth">    6.88    6.89</time>
   <time name="total">  156.41  156.46</time>
   <energy>
    <i name="e_fr_energy">   -905.90658668</i>
    <i name="e_wo_entrp">   -905.91412704</i>
    <i name="e_0_energy">   -905.90910013</i>
   </energy>
  </scstep>
  <scstep>
   <time name="diag">   38.50   38.50</time>
   <time name="diis">   89.82   89.83</time>
   <time name="orth">    6.78    6.79</time>
   <time name="total">  157.04  157.08</time>
   <energy>
    <i name="e_fr_energy">   -906.08112349</i>
    <i name="e_wo_entrp">   -906.08634601</i>
    <i name="e_0_energy">   -906.08286433</i>
   </energy>
  </scstep>
  <scstep>
   <time name="diag">   39.41   39.42</time>
   <time name="diis">   88.19   88.20</time>
   <time name="orth">    7.22    7.22</time>
   <time name="total">  157.31  157.35</time>
   <energy>
    <i name="e_fr_energy">   -905.99720010</i>
    <i name="e_wo_entrp">   -905.99535262</i>
    <i name="e_0_energy">   -905.99658427</i>
   </energy>
  </scstep>
  <scstep>
   <time name="diag">   39.01   39.02</time>
   <time name="diis">   95.45   95.47</time>
   <time name="orth">    7.07    7.08</time>
   <time name="total">  164.13  164.17</time>
   <energy>
    <i name="e_fr_energy">   -905.85635080</i>
    <i name="e_wo_entrp">   -905.84839099</i>
    <i name="e_0_energy">   -905.85369753</i>
   </energy>
  </scstep>
  <scstep>
   <time name="diag">   39.36   39.37</time>
   <time name="diis">   91.74   91.77</time>
   <time name="orth">    7.22    7.22</time>
   <time name="total">  161.09  161.13</time>
   <energy>
    <i name="e_fr_energy">   -905.79413863</i>
    <i name="e_wo_entrp">   -905.80128740</i>
    <i name="e_0_energy">   -905.79652155</i>
   </energy>
  </scstep>
  <scstep>
   <time name="diag">   39.10   39.11</time>
   <time name="diis">   87.12   87.14</time>
   <time name="orth">    7.15    7.15</time>
   <time name="total">  156.25  156.29</time>
   <energy>
    <i name="e_fr_energy">   -905.79128004</i>
    <i name="e_wo_entrp">   -905.79818464</i>
    <i name="e_0_energy">   -905.79358157</i>
   </energy>
  </scstep>
  <scstep>
   <time name="diag">   39.31   39.32</time>
   <time name="diis">   97.10   97.12</time>
   <time name="orth">    7.35    7.36</time>
   <time name="total">  166.01  166.05</time>
   <energy>
    <i name="e_fr_energy">   -906.34993009</i>
    <i name="e_wo_entrp">   -906.34123784</i>
    <i name="e_0_energy">   -906.34703267</i>
   </energy>
  </scstep>
  <scstep>
   <time name="diag">   39.71   39.72</time>
   <time name="diis">   87.54   87.56</time>
   <time name="orth">    7.08    7.08</time>
   <time name="total">  156.75  156.79</time>
   <energy>
    <i name="e_fr_energy">   -906.35162243</i>
    <i name="e_wo_entrp">   -906.34131865</i>
    <i name="e_0_energy">   -906.34818783</i>
   </energy>
  </scstep>
  <scstep>
   <time name="diag">   39.13   39.14</time>
   <time name="diis">   89.06   89.08</time>
   <time name="orth">    7.00    7.01</time>
   <time name="total">  157.52  157.56</time>
   <energy>
    <i name="e_fr_energy">   -906.35272470</i>
    <i name="e_wo_entrp">   -906.34318617</i>
    <i name="e_0_energy">   -906.34954519</i>
   </energy>
  </scstep>
  <scstep>
   <time name="diag">   39.33   39.33</time>
   <time name="diis">   92.27   92.29</time>
   <time name="orth">    7.13    7.13</time>
   <time name="total">  161.20  161.24</time>
   <energy>
    <i name="e_fr_energy">   -906.29154755</i>
    <i name="e_wo_entrp">   -906.29204797</i>
    <i name="e_0_energy">   -906.29171436</i>
   </energy>
  </scstep>
  <scstep>
   <time name="diag">   39.66   39.69</time>
   <time name="diis">   90.53   90.56</time>
   <time name="orth">    7.08    7.09</time>
   <time name="total">  160.09  160.19</time>
   <energy>
    <i name="e_fr_energy">   -906.31252051</i>
    <i name="e_wo_entrp">   -906.31470474</i>
    <i name="e_0_energy">   -906.31324858</i>
   </energy>
  </scstep>
  <scstep>
   <time name="diag">   40.11   40.13</time>
   <time name="diis">   98.00   98.04</time>
   <time name="orth">    7.31    7.31</time>
   <time name="total">  168.08  168.16</time>
   <energy>
    <i name="e_fr_energy">   -906.33772771</i>
    <i name="e_wo_entrp">   -906.34457671</i>
    <i name="e_0_energy">   -906.34001071</i>
   </energy>
  </scstep>
  <scstep>
   <time name="diag">   39.61   39.62</time>
   <time name="diis">  106.79  106.81</time>
   <time name="orth">    7.09    7.09</time>
   <time name="total">  175.90  175.95</time>
   <energy>
    <i name="e_fr_energy">   -906.50289539</i>
    <i name="e_wo_entrp">   -906.50145784</i>
    <i name="e_0_energy">   -906.50241621</i>
   </energy>
  </scstep>
  <scstep>
   <time name="diag">   39.44   39.45</time>
   <time name="diis">   98.29   98.31</time>
   <time name="orth">    7.20    7.20</time>
   <time name="total">  167.89  167.94</time>
   <energy>
    <i name="e_fr_energy">   -906.21680512</i>
    <i name="e_wo_entrp">   -906.22021298</i>
    <i name="e_0_energy">   -906.21794107</i>
   </energy>
  </scstep>
  <scstep>
   <time name="diag">   39.70   39.71</time>
   <time name="diis">  101.91  101.94</time>
   <time name="orth">    7.06    7.06</time>
   <time name="total">  171.31  171.35</time>
   <energy>
    <i name="e_fr_energy">   -906.15719702</i>
    <i name="e_wo_entrp">   -906.16116988</i>
    <i name="e_0_energy">   -906.15852130</i>
   </energy>
  </scstep>
  <scstep>
   <time name="diag">   38.54   38.55</time>
   <time name="diis">   90.86   90.88</time>
   <time name="orth">    7.20    7.20</time>
   <time name="total">  147.51  147.55</time>
   <energy>
    <i name="alphaZ">   2847.48764424</i>
    <i name="ewald"> 220163.48075563</i>
    <i name="hartreedc">-294250.54749990</i>
    <i name="XCdc">   2459.41274815</i>
    <i name="pawpsdc">  50153.22877836</i>
    <i name="pawaedc"> -49323.14998463</i>
    <i name="eentropy">      0.00353105</i>
    <i name="bandstr">  -9406.87262875</i>
    <i name="atom">  76450.79955823</i>
    <i name="e_fr_energy">   -906.15709762</i>
    <i name="e_wo_entrp">   -906.16062867</i>
    <i name="e_0_energy">   -906.15827463</i>
   </energy>
  </scstep>
  <structure>
   <crystal>
    <varray name="basis" >
     <v>      10.73678200       0.00000000       0.00000000 </v>
     <v>       0.00000000      11.38807700       0.00000000 </v>
     <v>       0.00000000       0.00000000      25.00000000 </v>
    </varray>
    <i name="volume">   3056.78250371</i>
    <varray name="rec_basis" >
     <v>       0.09313778       0.00000000       0.00000000 </v>
     <v>       0.00000000       0.08781114       0.00000000 </v>
     <v>       0.00000000       0.00000000       0.04000000 </v>
    </varray>
   </crystal>
   <varray name="positions" >
    <v>       0.12336000       0.00023000       0.29968000 </v>
    <v>       0.12328000       0.33332000       0.29883000 </v>
    <v>       0.12374000       0.66690000       0.29891000 </v>
    <v>       0.62341000       0.00210000       0.30338000 </v>
    <v>       0.62318000       0.33214000       0.30265000 </v>
    <v>       0.62393000       0.66595000       0.30432000 </v>
    <v>       0.13228000       0.00000000       0.14044000 </v>
    <v>       0.13228000       0.33333000       0.14044000 </v>
    <v>       0.13228000       0.66667000       0.14044000 </v>
    <v>       0.61925000       0.00000000       0.14463000 </v>
    <v>       0.61925000       0.33333000       0.14463000 </v>
    <v>       0.61925000       0.66667000       0.14463000 </v>
    <v>       0.12240000       0.00279000       0.45764000 </v>
    <v>       0.11678000       0.33555000       0.46043000 </v>
    <v>       0.11941000       0.66297000       0.45607000 </v>
    <v>       0.62895000       0.99818000       0.46703000 </v>
    <v>       0.62620000       0.33518000       0.47360000 </v>
    <v>       0.63359000       0.66705000       0.46141000 </v>
    <v>       0.37195000       0.16667000       0.06566000 </v>
    <v>       0.37195000       0.50000000       0.06566000 </v>
    <v>       0.37195000       0.83333000       0.06566000 </v>
    <v>       0.37299000       0.16270000       0.38052000 </v>
    <v>       0.37461000       0.50177000       0.38009000 </v>
    <v>       0.37476000       0.83504000       0.38149000 </v>
    <v>       0.87261000       0.16644000       0.38059000 </v>
    <v>       0.87255000       0.50181000       0.37941000 </v>
    <v>       0.87299000       0.83340000       0.37901000 </v>
    <v>       0.37271000       0.16686000       0.22230000 </v>
    <v>       0.37312000       0.49972000       0.22246000 </v>
    <v>       0.37293000       0.83345000       0.22212000 </v>
    <v>       0.87432000       0.16667000       0.21990000 </v>
    <v>       0.87432000       0.50000000       0.21990000 </v>
    <v>       0.87432000       0.83333000       0.21990000 </v>
    <v>       0.87615000       0.17289000       0.53640000 </v>
    <v>       0.87899000       0.50753000       0.53533000 </v>
    <v>       0.87055000       0.82352000       0.53882000 </v>
    <v>       0.37601000       0.99949000       0.30198000 </v>
    <v>       0.37583000       0.33254000       0.30289000 </v>
    <v>       0.37572000       0.66790000       0.30229000 </v>
    <v>       0.87516000       0.00065000       0.29951000 </v>
    <v>       0.87499000       0.33317000       0.29992000 </v>
    <v>       0.87514000       0.66679000       0.29878000 </v>
    <v>       0.38075000       0.00000000       0.14463000 </v>
    <v>       0.38075000       0.33333000       0.14463000 </v>
    <v>       0.38075000       0.66667000       0.14463000 </v>
    <v>       0.86772000       0.00000000       0.14044000 </v>
    <v>       0.86772000       0.33333000       0.14044000 </v>
    <v>       0.86772000       0.66667000       0.14044000 </v>
    <v>       0.37067000       0.99898000       0.46267000 </v>
    <v>       0.36496000       0.33261000       0.45563000 </v>
    <v>       0.36674000       0.66632000       0.45993000 </v>
    <v>       0.87668000       0.99805000       0.45793000 </v>
    <v>       0.87386000       0.33620000       0.45713000 </v>
    <v>       0.88088000       0.66914000       0.45629000 </v>
    <v>       0.62805000       0.16667000       0.06566000 </v>
    <v>       0.62805000       0.50000000       0.06566000 </v>
    <v>       0.62805000       0.83333000       0.06566000 </v>
    <v>       0.12492000       0.16938000       0.37961000 </v>
    <v>       0.12610000       0.49858000       0.37861000 </v>
    <v>       0.12625000       0.83336000       0.37991000 </v>
    <v>       0.62554000       0.16962000       0.38535000 </v>
    <v>       0.62546000       0.49416000       0.38390000 </v>
    <v>       0.62584000       0.83678000       0.38278000 </v>
    <v>       0.12568000       0.16667000       0.21990000 </v>
    <v>       0.12568000       0.50000000       0.21990000 </v>
    <v>       0.12568000       0.83333000       0.21990000 </v>
    <v>       0.62720000       0.16657000       0.22250000 </v>
    <v>       0.62697000       0.50026000       0.22291000 </v>
    <v>       0.62696000       0.83319000       0.22311000 </v>
    <v>       0.14622000       0.17019000       0.54345000 </v>
    <v>       0.13963000       0.50899000       0.54263000 </v>
    <v>       0.13495000       0.82296000       0.53619000 </v>
    <v>       0.21135000       0.33831000       0.76655000 </v>
    <v>       0.01491000       0.35093000       0.62991000 </v>
    <v>       0.07703000       0.33112000       0.69009000 </v>
    <v>       0.00000000       0.00000000       0.21606000 </v>
    <v>       0.00000000       0.33333000       0.21606000 </v>
    <v>       0.00000000       0.66667000       0.21606000 </v>
    <v>       0.49978000       0.00025000       0.22488000 </v>
    <v>       0.50012000       0.33299000       0.22487000 </v>
    <v>       0.49975000       0.66681000       0.22539000 </v>
    <v>       0.00165000       0.99729000       0.53621000 </v>
    <v>       0.99641000       0.33631000       0.53903000 </v>
    <v>       0.00136000       0.67061000       0.53165000 </v>
    <v>       0.24905000       0.16667000       0.14325000 </v>
    <v>       0.24905000       0.50000000       0.14325000 </v>
    <v>       0.24905000       0.83333000       0.14325000 </v>
    <v>       0.75095000       0.16667000       0.14325000 </v>
    <v>       0.75095000       0.50000000       0.14325000 </v>
    <v>       0.75095000       0.83333000       0.14325000 </v>
    <v>       0.24565000       0.16822000       0.45731000 </v>
    <v>       0.24875000       0.50096000       0.45619000 </v>
    <v>       0.24776000       0.83134000       0.45875000 </v>
    <v>       0.75541000       0.16787000       0.46228000 </v>
    <v>       0.75233000       0.50309000       0.46034000 </v>
    <v>       0.75324000       0.83155000       0.46035000 </v>
    <v>       0.24769000       0.16658000       0.30056000 </v>
    <v>       0.24896000       0.49999000       0.30039000 </v>
    <v>       0.24940000       0.83364000       0.30092000 </v>
    <v>       0.75100000       0.16696000       0.30160000 </v>
    <v>       0.75004000       0.49973000       0.30141000 </v>
    <v>       0.75049000       0.83382000       0.30139000 </v>
    <v>       0.50000000       0.00000000       0.07207000 </v>
    <v>       0.50000000       0.33333000       0.07207000 </v>
    <v>       0.50000000       0.66667000       0.07207000 </v>
    <v>       0.99871000       0.00012000       0.37878000 </v>
    <v>       0.99770000       0.33409000       0.37880000 </v>
    <v>       0.99917000       0.66718000       0.37658000 </v>
    <v>       0.49991000       0.00012000       0.38370000 </v>
    <v>       0.49727000       0.33253000       0.38349000 </v>
    <v>       0.50085000       0.66722000       0.38601000 </v>
    <v>       0.50243000       0.05617000       0.53086000 </v>
    <v>       0.51708000       0.22360000       0.61282000 </v>
    <v>       0.51812000       0.34694000       0.54540000 </v>
    <v>       0.32097000       0.18278000       0.58379000 </v>
    <v>       0.32603000       0.31806000       0.65501000 </v>
    <v>       0.30425000       0.44648000       0.57984000 </v>
    <v>       0.21209000       0.32691000       0.72075000 </v>
   </varray>
  </structure>
  <varray name="forces" >
   <v>       0.11001890      -0.01564048       0.61160729 </v>
   <v>      -0.03778171       0.07766644       0.30290301 </v>
   <v>      -0.02312127      -0.06848566       0.30513027 </v>
   <v>      -0.01527422       0.03576622       0.28862300 </v>
   <v>      -0.00979470       0.02445694       0.24268616 </v>
   <v>      -0.00877153      -0.06982837       0.27408025 </v>
   <v>       0.47291326       0.01216835      -0.29461983 </v>
   <v>       0.05748665       0.11646983       0.01745423 </v>
   <v>       0.07598260      -0.12670297       0.00071953 </v>
   <v>       0.02093748      -0.00237672       0.11214908 </v>
   <v>       0.08116251       0.06422281       0.18511264 </v>
   <v>       0.08095706      -0.05646566       0.14715994 </v>
   <v>      -0.64028284      -0.11303263       1.16278444 </v>
   <v>      -0.12826679      -0.10805804       0.43450836 </v>
   <v>      -0.07142190       0.12386623       0.36792923 </v>
   <v>       0.04699787       0.07599236       0.47384440 </v>
   <v>       0.03347788       0.38157083       0.01275449 </v>
   <v>       0.15558086       0.06225705       0.16875349 </v>
   <v>       0.17860854       0.03188481      -0.04398951 </v>
   <v>       0.10901225       0.00333936      -0.00567589 </v>
   <v>       0.18539408      -0.03360828      -0.05883237 </v>
   <v>      -0.02142711       0.06214829       0.30272742 </v>
   <v>       0.00398865      -0.01548552       0.24465814 </v>
   <v>      -0.02865376      -0.03317116       0.31563376 </v>
   <v>       0.01912826      -0.03449522       0.40796648 </v>
   <v>       0.00925873      -0.02314931       0.28902705 </v>
   <v>       0.04132846       0.05722149       0.43837647 </v>
   <v>       0.05735181       0.07752432       0.18800414 </v>
   <v>      -0.02790833      -0.04942941       0.17847000 </v>
   <v>       0.01732611      -0.02453899       0.19659175 </v>
   <v>      -0.28747847       0.54741314       0.33079677 </v>
   <v>      -0.03205087      -0.06715470       0.26156387 </v>
   <v>      -0.21641732      -0.42079532       0.28862150 </v>
   <v>       0.67250245      -1.00643583       0.36355013 </v>
   <v>       0.08450691      -0.15992793       0.11984666 </v>
   <v>       0.63525078       1.01298191       0.27361610 </v>
   <v>       0.01922770      -0.00574675       0.28449917 </v>
   <v>       0.04834697       0.05447221       0.24480147 </v>
   <v>      -0.01280137      -0.05176760       0.26735050 </v>
   <v>      -0.13756995       0.05034259       0.63782370 </v>
   <v>       0.03249874       0.05533177       0.29912132 </v>
   <v>       0.04251623      -0.09928168       0.31625182 </v>
   <v>      -0.04362223       0.02127181       0.08964647 </v>
   <v>      -0.07741228       0.05392029       0.15416956 </v>
   <v>      -0.08937536      -0.07557380       0.13569691 </v>
   <v>      -0.40668648       0.05334635      -0.26147100 </v>
   <v>      -0.05184207       0.11583432       0.00759304 </v>
   <v>      -0.05280324      -0.13996518      -0.00496250 </v>
   <v>      -0.33282507      -0.20301387       0.03278657 </v>
   <v>      -0.00091962       0.07645583       0.34278853 </v>
   <v>      -0.12270513       0.06235642       0.17524745 </v>
   <v>       0.54193735       0.02060809       1.12471323 </v>
   <v>      -0.01748520      -0.12021256       0.35182573 </v>
   <v>       0.01228539       0.09505022       0.36516982 </v>
   <v>      -0.18073360       0.03715713      -0.05139563 </v>
   <v>      -0.10798539       0.00110900      -0.01355785 </v>
   <v>      -0.19303493      -0.03660270      -0.06969719 </v>
   <v>      -0.01560305      -0.03600773       0.39758256 </v>
   <v>       0.00089857      -0.01428223       0.28279256 </v>
   <v>      -0.00858596       0.04310549       0.40100081 </v>
   <v>       0.10294443       0.03446757       0.34050379 </v>
   <v>       0.02520447      -0.00522193       0.26567129 </v>
   <v>       0.06379438      -0.01913543       0.34282236 </v>
   <v>       0.22471027       0.45157270       0.19264815 </v>
   <v>       0.03240235      -0.00799352       0.16869024 </v>
   <v>       0.30793829      -0.47019047       0.23856371 </v>
   <v>      -0.03641410       0.08316096       0.22169780 </v>
   <v>       0.03364350      -0.05843426       0.19453185 </v>
   <v>      -0.04313081      -0.02256208       0.20279554 </v>
   <v>      -0.49493037      -0.92766629       0.11133899 </v>
   <v>       0.33246437       0.04433609      -0.07495858 </v>
   <v>      -0.74551468       0.99894564       0.38421451 </v>
   <v>      -0.33824752       0.03056892       2.59207093 </v>
   <v>       1.88476333      -0.62878432       1.77586561 </v>
   <v>      -1.46763357       0.18794047      -0.60200513 </v>
   <v>      -0.07893890      -0.06010935      -0.35586953 </v>
   <v>      -0.04366665      -0.21811939      -0.32658309 </v>
   <v>      -0.05238310       0.27632728      -0.39287829 </v>
   <v>       0.01274356      -0.03583939      -0.44718788 </v>
   <v>      -0.00114078      -0.08009219      -0.43096699 </v>
   <v>       0.01727001       0.11844336      -0.42137373 </v>
   <v>      -0.06459295       0.03760800      -0.34583480 </v>
   <v>       0.42005231       0.32669478       0.55847858 </v>
   <v>       0.00453647      -0.35452358      -0.21203538 </v>
   <v>      -0.06130467      -0.20402828      -0.19191793 </v>
   <v>       0.06159696       0.03483559      -0.24175536 </v>
   <v>      -0.07063013       0.17190992      -0.12292034 </v>
   <v>       0.08269293      -0.19827442      -0.12535297 </v>
   <v>      -0.03367694       0.05102082      -0.17979969 </v>
   <v>       0.05640211       0.14760227      -0.10420549 </v>
   <v>       0.22202247       0.05423462      -0.62695423 </v>
   <v>       0.07795675       0.09281868      -0.58968690 </v>
   <v>       0.32426888      -0.07870871      -0.68619804 </v>
   <v>      -0.17827662       0.01957657      -0.75609764 </v>
   <v>      -0.01977170       0.14811899      -0.56784861 </v>
   <v>      -0.23164973      -0.26254783      -0.64287794 </v>
   <v>      -0.04844519      -0.09496153      -0.67340451 </v>
   <v>      -0.00868230       0.02474649      -0.53274102 </v>
   <v>      -0.04846067       0.06976152      -0.69355822 </v>
   <v>       0.06734789      -0.11978345      -0.69835404 </v>
   <v>       0.01098628       0.04198635      -0.54123681 </v>
   <v>       0.05516715       0.07000952      -0.72012870 </v>
   <v>       0.00941244      -0.00358041      -0.10123352 </v>
   <v>      -0.00050962      -0.06394153      -0.19804141 </v>
   <v>       0.00540061       0.07010900      -0.12237572 </v>
[...]
       <r>  -1.3237  1.0000</r>
       <r>  -1.3173  1.0000</r>
       <r>  -1.2912  1.0000</r>
       <r>  -1.2835  1.0000</r>
       <r>  -1.2724  1.0000</r>
       <r>  -1.2559  1.0000</r>
       <r>  -1.2440  1.0000</r>
       <r>  -1.2402  1.0000</r>
       <r>  -1.2241  1.0000</r>
       <r>  -1.2195  1.0000</r>
       <r>  -1.2020  1.0000</r>
       <r>  -1.1847  1.0000</r>
       <r>  -1.1672  1.0000</r>
       <r>  -1.1324  1.0000</r>
       <r>  -1.1303  1.0000</r>
       <r>  -1.1210  1.0000</r>
       <r>  -1.1200  1.0000</r>
       <r>  -1.1015  1.0000</r>
       <r>  -1.0783  1.0000</r>
       <r>  -1.0600  1.0000</r>
       <r>  -1.0548  1.0000</r>
       <r>  -1.0420  1.0000</r>
       <r>  -1.0349  1.0000</r>
       <r>  -1.0271  1.0000</r>
       <r>  -1.0069  1.0000</r>
       <r>  -1.0025  1.0000</r>
       <r>  -0.9797  1.0000</r>
       <r>  -0.9631  1.0000</r>
       <r>  -0.9552  1.0000</r>
       <r>  -0.9484  1.0000</r>
       <r>  -0.9419  1.0000</r>
       <r>  -0.9241  1.0000</r>
       <r>  -0.9183  1.0000</r>
       <r>  -0.8981  1.0000</r>
       <r>  -0.8969  1.0000</r>
       <r>  -0.8877  1.0000</r>
       <r>  -0.8776  1.0000</r>
       <r>  -0.8646  1.0000</r>
       <r>  -0.8611  1.0000</r>
       <r>  -0.8528  1.0000</r>
       <r>  -0.8459  1.0000</r>
       <r>  -0.8314  1.0000</r>
       <r>  -0.8009  1.0000</r>
       <r>  -0.7771  1.0000</r>
       <r>  -0.7696  1.0000</r>
       <r>  -0.7533  1.0000</r>
       <r>  -0.7453  1.0000</r>
       <r>  -0.7374  1.0000</r>
       <r>  -0.7207  1.0000</r>
       <r>  -0.7153  1.0000</r>
       <r>  -0.7089  1.0000</r>
       <r>  -0.6994  1.0000</r>
       <r>  -0.6866  1.0000</r>
       <r>  -0.6751  1.0000</r>
       <r>  -0.6620  1.0000</r>
       <r>  -0.6537  1.0000</r>
       <r>  -0.6454  1.0000</r>
       <r>  -0.6310  1.0000</r>
       <r>  -0.6228  1.0000</r>
       <r>  -0.6058  1.0000</r>
       <r>  -0.5948  1.0000</r>
       <r>  -0.5898  1.0000</r>
       <r>  -0.5824  1.0000</r>
       <r>  -0.5647  1.0000</r>
       <r>  -0.5540  1.0000</r>
       <r>  -0.5307  1.0000</r>
       <r>  -0.5284  1.0000</r>
       <r>  -0.5218  1.0000</r>
       <r>  -0.5039  1.0000</r>
       <r>  -0.4874  1.0000</r>
       <r>  -0.4784  1.0000</r>
       <r>  -0.4696  1.0000</r>
       <r>  -0.4510  1.0000</r>
       <r>  -0.4156  1.0000</r>
       <r>  -0.3693  1.0000</r>
       <r>  -0.3419  1.0000</r>
       <r>  -0.3113  1.0000</r>
       <r>  -0.2474  1.0000</r>
       <r>  -0.2447  1.0000</r>
       <r>  -0.1826  1.0000</r>
       <r>  -0.1485  1.0000</r>
       <r>   0.0191  1.0000</r>
       <r>   0.1187  1.0000</r>
       <r>   0.1782  1.0000</r>
       <r>   0.3600  1.0000</r>
       <r>   1.1417  1.0001</r>
       <r>   1.7562  0.0000</r>
       <r>   1.9364  0.0000</r>
       <r>   1.9400  0.0000</r>
       <r>   1.9411  0.0000</r>
       <r>   1.9422  0.0000</r>
       <r>   1.9627  0.0000</r>
       <r>   1.9655  0.0000</r>
       <r>   2.0016  0.0000</r>
       <r>   2.0035  0.0000</r>
       <r>   2.0123  0.0000</r>
       <r>   2.0193  0.0000</r>
       <r>   2.0228  0.0000</r>
       <r>   2.0273  0.0000</r>
       <r>   2.0298  0.0000</r>
       <r>   2.0353  0.0000</r>
       <r>   2.0370  0.0000</r>
       <r>   2.0407  0.0000</r>
       <r>   2.0426  0.0000</r>
       <r>   2.0498  0.0000</r>
       <r>   2.0578  0.0000</r>
       <r>   2.0594  0.0000</r>
       <r>   2.0606  0.0000</r>
       <r>   2.0656  0.0000</r>
       <r>   2.0670  0.0000</r>
       <r>   2.0726  0.0000</r>
       <r>   2.0798  0.0000</r>
       <r>   2.0847  0.0000</r>
       <r>   2.0862  0.0000</r>
       <r>   2.0872  0.0000</r>
       <r>   2.0930  0.0000</r>
       <r>   2.1020  0.0000</r>
       <r>   2.1042  0.0000</r>
       <r>   2.1057  0.0000</r>
       <r>   2.1136  0.0000</r>
       <r>   2.1242  0.0000</r>
       <r>   2.1284  0.0000</r>
       <r>   2.1337  0.0000</r>
       <r>   2.1387  0.0000</r>
       <r>   2.1394  0.0000</r>
       <r>   2.1432  0.0000</r>
       <r>   2.1448  0.0000</r>
       <r>   2.1479  0.0000</r>
       <r>   2.1506  0.0000</r>
       <r>   2.1520  0.0000</r>
       <r>   2.1573  0.0000</r>
       <r>   2.1628  0.0000</r>
       <r>   2.1633  0.0000</r>
       <r>   2.1704  0.0000</r>
       <r>   2.1711  0.0000</r>
       <r>   2.1724  0.0000</r>
       <r>   2.1738  0.0000</r>
       <r>   2.1774  0.0000</r>
       <r>   2.1794  0.0000</r>
       <r>   2.1837  0.0000</r>
       <r>   2.1860  0.0000</r>
       <r>   2.1874  0.0000</r>
       <r>   2.1885  0.0000</r>
       <r>   2.1905  0.0000</r>
       <r>   2.1925  0.0000</r>
       <r>   2.1965  0.0000</r>
       <r>   2.1981  0.0000</r>
       <r>   2.1994  0.0000</r>
       <r>   2.1999  0.0000</r>
       <r>   2.2025  0.0000</r>
       <r>   2.2066  0.0000</r>
       <r>   2.2073  0.0000</r>
       <r>   2.2105  0.0000</r>
       <r>   2.2131  0.0000</r>
       <r>   2.2147  0.0000</r>
       <r>   2.2162  0.0000</r>
       <r>   2.2180  0.0000</r>
       <r>   2.2201  0.0000</r>
       <r>   2.2213  0.0000</r>
       <r>   2.2224  0.0000</r>
       <r>   2.2261  0.0000</r>
       <r>   2.2280  0.0000</r>
       <r>   2.2306  0.0000</r>
       <r>   2.2326  0.0000</r>
       <r>   2.2344  0.0000</r>
       <r>   2.2359  0.0000</r>
       <r>   2.2375  0.0000</r>
       <r>   2.2427  0.0000</r>
       <r>   2.2447  0.0000</r>
       <r>   2.2483  0.0000</r>
       <r>   2.2493  0.0000</r>
       <r>   2.2512  0.0000</r>
       <r>   2.2528  0.0000</r>
       <r>   2.2544  0.0000</r>
       <r>   2.2572  0.0000</r>
       <r>   2.2593  0.0000</r>
       <r>   2.2613  0.0000</r>
       <r>   2.2627  0.0000</r>
       <r>   2.2638  0.0000</r>
       <r>   2.2657  0.0000</r>
       <r>   2.2668  0.0000</r>
       <r>   2.2685  0.0000</r>
       <r>   2.2697  0.0000</r>
       <r>   2.2705  0.0000</r>
       <r>   2.2722  0.0000</r>
       <r>   2.2730  0.0000</r>
       <r>   2.2795  0.0000</r>
       <r>   2.2807  0.0000</r>
       <r>   2.2858  0.0000</r>
       <r>   2.2889  0.0000</r>
       <r>   2.2900  0.0000</r>
       <r>   2.2945  0.0000</r>
       <r>   2.2982  0.0000</r>
       <r>   2.2995  0.0000</r>
       <r>   2.3018  0.0000</r>
       <r>   2.3069  0.0000</r>
       <r>   2.3086  0.0000</r>
       <r>   2.3124  0.0000</r>
       <r>   2.3143  0.0000</r>
       <r>   2.3167  0.0000</r>
       <r>   2.3208  0.0000</r>
       <r>   2.3224  0.0000</r>
       <r>   2.3238  0.0000</r>
       <r>   2.3266  0.0000</r>
       <r>   2.3288  0.0000</r>
       <r>   2.3302  0.0000</r>
       <r>   2.3357  0.0000</r>
       <r>   2.3382  0.0000</r>
       <r>   2.3414  0.0000</r>
       <r>   2.3453  0.0000</r>
       <r>   2.3493  0.0000</r>
       <r>   2.3502  0.0000</r>
       <r>   2.3521  0.0000</r>
       <r>   2.3545  0.0000</r>
       <r>   2.3615  0.0000</r>
       <r>   2.3633  0.0000</r>
       <r>   2.3648  0.0000</r>
       <r>   2.3668  0.0000</r>
       <r>   2.3706  0.0000</r>
       <r>   2.3729  0.0000</r>
       <r>   2.3740  0.0000</r>
       <r>   2.3764  0.0000</r>
       <r>   2.3786  0.0000</r>
       <r>   2.3818  0.0000</r>
       <r>   2.3823  0.0000</r>
       <r>   2.3880  0.0000</r>
       <r>   2.3903  0.0000</r>
       <r>   2.3913  0.0000</r>
       <r>   2.3918  0.0000</r>
       <r>   2.3966  0.0000</r>
       <r>   2.3987  0.0000</r>
       <r>   2.3989  0.0000</r>
       <r>   2.4023  0.0000</r>
       <r>   2.4036  0.0000</r>
       <r>   2.4061  0.0000</r>
       <r>   2.4109  0.0000</r>
       <r>   2.4118  0.0000</r>
       <r>   2.4142  0.0000</r>
       <r>   2.4163  0.0000</r>
       <r>   2.4168  0.0000</r>
      </set>
     </set>
    </set>
   </array>
  </eigenvalues>
 </calculation>
 <structure name="finalpos" >
  <crystal>
   <varray name="basis" >
    <v>      10.73678200       0.00000000       0.00000000 </v>
    <v>       0.00000000      11.38807700       0.00000000 </v>
    <v>       0.00000000       0.00000000      25.00000000 </v>
   </varray>
   <i name="volume">   3056.78250371</i>
   <varray name="rec_basis" >
    <v>       0.09313778       0.00000000       0.00000000 </v>
    <v>       0.00000000       0.08781114       0.00000000 </v>
    <v>       0.00000000       0.00000000       0.04000000 </v>
   </varray>
  </crystal>
  <varray name="positions" >
   <v>       0.12438341       0.00027203       0.29942694 </v>
   <v>       0.12442220       0.33338694       0.29887981 </v>
   <v>       0.12480502       0.66632510       0.29888392 </v>
   <v>       0.62454171       0.00155867       0.30342107 </v>
   <v>       0.62472219       0.33170845       0.30288597 </v>
   <v>       0.62541187       0.66757310       0.30444429 </v>
   <v>       0.13228000       0.00000000       0.14044000 </v>
   <v>       0.13228000       0.33333000       0.14044000 </v>
   <v>       0.13228000       0.66667000       0.14044000 </v>
   <v>       0.61925000       0.00000000       0.14463000 </v>
   <v>       0.61925000       0.33333000       0.14463000 </v>
   <v>       0.61925000       0.66667000       0.14463000 </v>
   <v>       0.12212026      -0.00028132       0.45620265 </v>
   <v>       0.12113363       0.33456034       0.46096138 </v>
   <v>       0.12199975       0.66374703       0.45580236 </v>
   <v>       0.62913830       0.00084068       0.47240799 </v>
   <v>       0.63075473       0.33762961       0.47006445 </v>
   <v>       0.63659295       0.66600392       0.46181633 </v>
   <v>       0.37195000       0.16667000       0.06566000 </v>
   <v>       0.37195000       0.50000000       0.06566000 </v>
   <v>       0.37195000       0.83333000       0.06566000 </v>
   <v>       0.37611904       0.16458551       0.37961330 </v>
   <v>       0.37814375       0.50164296       0.38005989 </v>
   <v>       0.37722661       0.83376957       0.38078886 </v>
   <v>       0.87530846       0.16713766       0.38043037 </v>
   <v>       0.87541317       0.50145047       0.37922605 </v>
   <v>       0.87478029       0.83232352       0.37947286 </v>
   <v>       0.37323674       0.16672607       0.22220754 </v>
   <v>       0.37379055       0.49982368       0.22221932 </v>
   <v>       0.37354881       0.83371704       0.22214911 </v>
   <v>       0.87432000       0.16667000       0.21990000 </v>
   <v>       0.87432000       0.50000000       0.21990000 </v>
   <v>       0.87432000       0.83333000       0.21990000 </v>
   <v>       0.87974201       0.17636796       0.53684004 </v>
   <v>       0.88548632       0.50199460       0.53727939 </v>
   <v>       0.87153311       0.82158620       0.53828028 </v>
   <v>       0.37717880      -0.00035735       0.30222481 </v>
   <v>       0.37723419       0.33317861       0.30240151 </v>
   <v>       0.37724457       0.66735627       0.30198126 </v>
   <v>       0.87618555       0.00021109       0.29963493 </v>
   <v>       0.87629510       0.33328055       0.29990738 </v>
   <v>       0.87635128       0.66680772       0.29873959 </v>
   <v>       0.38075000       0.00000000       0.14463000 </v>
   <v>       0.38075000       0.33333000       0.14463000 </v>
   <v>       0.38075000       0.66667000       0.14463000 </v>
   <v>       0.86772000       0.00000000       0.14044000 </v>
   <v>       0.86772000       0.33333000       0.14044000 </v>
   <v>       0.86772000       0.66667000       0.14044000 </v>
   <v>       0.37032031       0.99852829       0.46047808 </v>
   <v>       0.36994133       0.33213366       0.45602062 </v>
   <v>       0.37010606       0.66692930       0.45979548 </v>
   <v>       0.87573413      -0.00137033       0.45762049 </v>
   <v>       0.87898380       0.33676154       0.45736297 </v>
   <v>       0.88341605       0.66689008       0.45701281 </v>
   <v>       0.62805000       0.16667000       0.06566000 </v>
   <v>       0.62805000       0.50000000       0.06566000 </v>
   <v>       0.62805000       0.83333000       0.06566000 </v>
   <v>       0.12731015       0.16874885       0.37920284 </v>
   <v>       0.12923531       0.49820938       0.37900515 </v>
   <v>       0.12836728       0.83262316       0.37904181 </v>
   <v>       0.62815515       0.16726493       0.38571180 </v>
   <v>       0.62898147       0.49593959       0.38319806 </v>
   <v>       0.62813328       0.83890590       0.38441541 </v>
   <v>       0.12568000       0.16667000       0.21990000 </v>
   <v>       0.12568000       0.50000000       0.21990000 </v>
   <v>       0.12568000       0.83333000       0.21990000 </v>
   <v>       0.62755293       0.16672734       0.22264963 </v>
   <v>       0.62746848       0.50038001       0.22313732 </v>
   <v>       0.62739695       0.83324291       0.22312768 </v>
   <v>       0.14628792       0.16195786       0.53940882 </v>
   <v>       0.14682743       0.51068382       0.54062378 </v>
   <v>       0.13598868       0.82294860       0.53622257 </v>
   <v>       0.14540550       0.36028844       0.76039212 </v>
   <v>       0.05183619       0.32607176       0.62690395 </v>
   <v>       0.04572618       0.35453466       0.68261645 </v>
   <v>       0.00000000       0.00000000       0.21606000 </v>
   <v>       0.00000000       0.33333000       0.21606000 </v>
   <v>       0.00000000       0.66667000       0.21606000 </v>
   <v>       0.50050306       0.00022850       0.22488781 </v>
   <v>       0.50059316       0.33314409       0.22467868 </v>
   <v>       0.50032326       0.66694336       0.22519813 </v>
   <v>       0.00224625       0.99567066       0.53546921 </v>
   <v>       0.00412465       0.33584590       0.53923657 </v>
   <v>       0.00563471       0.66934571       0.53178077 </v>
   <v>       0.24905000       0.16667000       0.14325000 </v>
   <v>       0.24905000       0.50000000       0.14325000 </v>
   <v>       0.24905000       0.83333000       0.14325000 </v>
   <v>       0.75095000       0.16667000       0.14325000 </v>
   <v>       0.75095000       0.50000000       0.14325000 </v>
   <v>       0.75095000       0.83333000       0.14325000 </v>
   <v>       0.24897051       0.16580550       0.45552068 </v>
   <v>       0.25299960       0.50107966       0.45672622 </v>
   <v>       0.24985402       0.83158501       0.45801953 </v>
   <v>       0.75884014       0.16940087       0.46208821 </v>
   <v>       0.75651023       0.50262533       0.45997613 </v>
   <v>       0.75442832       0.83059098       0.46118493 </v>
   <v>       0.24900033       0.16665912       0.30003058 </v>
   <v>       0.25044994       0.50004143       0.30026997 </v>
   <v>       0.25059296       0.83342856       0.30056530 </v>
   <v>       0.75215642       0.16675229       0.30163816 </v>
   <v>       0.75164900       0.49999928       0.30128833 </v>
   <v>       0.75155727       0.83390221       0.30153030 </v>
   <v>       0.50000000       0.00000000       0.07207000 </v>
   <v>       0.50000000       0.33333000       0.07207000 </v>
   <v>       0.50000000       0.66667000       0.07207000 </v>
   <v>       0.99996529      -0.00067943       0.37835050 </v>
   <v>       0.00069749       0.33427232       0.37862337 </v>
   <v>       0.00157383       0.66673325       0.37658987 </v>
   <v>       0.50029319       0.00023496       0.38405458 </v>
   <v>       0.50108265       0.33327287       0.38296596 </v>
   <v>       0.50320773       0.66730592       0.38590944 </v>
   <v>       0.51720682       0.06888377       0.53568737 </v>
   <v>       0.52910814       0.18934830       0.63135159 </v>
   <v>       0.51139089       0.32809957       0.54056246 </v>
   <v>       0.31104383       0.16947352       0.58233616 </v>
   <v>       0.31620713       0.29737476       0.67511881 </v>
   <v>       0.30103249       0.42780570       0.58198864 </v>
   <v>       0.15350212       0.34265738       0.71275192 </v>
  </varray>
  <varray name="selective"  type="logical" >
   <v type="logical" >  T T T</v>
   <v type="logical" >  T T T</v>
   <v type="logical" >  T T T</v>
   <v type="logical" >  T T T</v>
   <v type="logical" >  T T T</v>
   <v type="logical" >  T T T</v>
   <v type="logical" >  F F F</v>
   <v type="logical" >  F F F</v>
   <v type="logical" >  F F F</v>
   <v type="logical" >  F F F</v>
   <v type="logical" >  F F F</v>
   <v type="logical" >  F F F</v>
   <v type="logical" >  T T T</v>
   <v type="logical" >  T T T</v>
   <v type="logical" >  T T T</v>
   <v type="logical" >  T T T</v>
   <v type="logical" >  T T T</v>
   <v type="logical" >  T T T</v>
   <v type="logical" >  F F F</v>
   <v type="logical" >  F F F</v>
   <v type="logical" >  F F F</v>
   <v type="logical" >  T T T</v>
   <v type="logical" >  T T T</v>
   <v type="logical" >  T T T</v>
   <v type="logical" >  T T T</v>
   <v type="logical" >  T T T</v>
   <v type="logical" >  T T T</v>
   <v type="logical" >  T T T</v>
   <v type="logical" >  T T T</v>
   <v type="logical" >  T T T</v>
   <v type="logical" >  F F F</v>
   <v type="logical" >  F F F</v>
   <v type="logical" >  F F F</v>
   <v type="logical" >  T T T</v>
   <v type="logical" >  T T T</v>
   <v type="logical" >  T T T</v>
   <v type="logical" >  T T T</v>
   <v type="logical" >  T T T</v>
   <v type="logical" >  T T T</v>
   <v type="logical" >  T T T</v>
   <v type="logical" >  T T T</v>
   <v type="logical" >  T T T</v>
   <v type="logical" >  F F F</v>
   <v type="logical" >  F F F</v>
   <v type="logical" >  F F F</v>
   <v type="logical" >  F F F</v>
   <v type="logical" >  F F F</v>
   <v type="logical" >  F F F</v>
   <v type="logical" >  T T T</v>
   <v type="logical" >  T T T</v>
   <v type="logical" >  T T T</v>
   <v type="logical" >  T T T</v>
   <v type="logical" >  T T T</v>
   <v type="logical" >  T T T</v>
   <v type="logical" >  F F F</v>
   <v type="logical" >  F F F</v>
   <v type="logical" >  F F F</v>
   <v type="logical" >  T T T</v>
   <v type="logical" >  T T T</v>
   <v type="logical" >  T T T</v>
   <v type="logical" >  T T T</v>
   <v type="logical" >  T T T</v>
   <v type="logical" >  T T T</v>
   <v type="logical" >  F F F</v>
   <v type="logical" >  F F F</v>
   <v type="logical" >  F F F</v>
   <v type="logical" >  T T T</v>
   <v type="logical" >  T T T</v>
   <v type="logical" >  T T T</v>
   <v type="logical" >  T T T</v>
   <v type="logical" >  T T T</v>
   <v type="logical" >  T T T</v>
   <v type="logical" >  T T T</v>
   <v type="logical" >  T T T</v>
   <v type="logical" >  T T T</v>
   <v type="logical" >  F F F</v>
   <v type="logical" >  F F F</v>
   <v type="logical" >  F F F</v>
   <v type="logical" >  T T T</v>
   <v type="logical" >  T T T</v>
   <v type="logical" >  T T T</v>
   <v type="logical" >  T T T</v>
   <v type="logical" >  T T T</v>
   <v type="logical" >  T T T</v>
   <v type="logical" >  F F F</v>
   <v type="logical" >  F F F</v>
   <v type="logical" >  F F F</v>
   <v type="logical" >  F F F</v>
   <v type="logical" >  F F F</v>
   <v type="logical" >  F F F</v>
   <v type="logical" >  T T T</v>
   <v type="logical" >  T T T</v>
   <v type="logical" >  T T T</v>
   <v type="logical" >  T T T</v>
   <v type="logical" >  T T T</v>
   <v type="logical" >  T T T</v>
   <v type="logical" >  T T T</v>
   <v type="logical" >  T T T</v>
   <v type="logical" >  T T T</v>
   <v type="logical" >  T T T</v>
   <v type="logical" >  T T T</v>
   <v type="logical" >  T T T</v>
   <v type="logical" >  F F F</v>
   <v type="logical" >  F F F</v>
   <v type="logical" >  F F F</v>
   <v type="logical" >  T T T</v>
   <v type="logical" >  T T T</v>
   <v type="logical" >  T T T</v>
   <v type="logical" >  T T T</v>
   <v type="logical" >  T T T</v>
   <v type="logical" >  T T T</v>
   <v type="logical" >  T T T</v>
   <v type="logical" >  T T T</v>
   <v type="logical" >  T T T</v>
   <v type="logical" >  T T T</v>
   <v type="logical" >  T T T</v>
   <v type="logical" >  T T T</v>
   <v type="logical" >  T T T</v>
  </varray>
  <nose>
   <v>      -3.00000000       0.00000000       0.00010000       0.00010000 </v>
  </nose>
 </structure>
</modeling>
