
 Distributed Data Interface kickoff program.
 Initiating 1 compute processes on 1 nodes to run the following command:
 /home/instructor/gamess/gamess.April2008R1.x /home/instructor/webmo/gutow/248/input 

          ******************************************************
          *         GAMESS VERSION = 11 APR 2008 (R1)          *
          *             FROM IOWA STATE UNIVERSITY             *
          * M.W.SCHMIDT, K.K.BALDRIDGE, J.A.BOATZ, S.T.ELBERT, *
          *   M.S.GORDON, J.H.JENSEN, S.KOSEKI, N.MATSUNAGA,   *
          *          K.A.NGUYEN, S.J.SU, T.L.WINDUS,           *
          *       TOGETHER WITH M.DUPUIS, J.A.MONTGOMERY       *
          *         J.COMPUT.CHEM.  14, 1347-1363(1993)        *
          **************** 32 BIT LINUX VERSION ****************

     SINCE 1993, STUDENTS AND POSTDOCS WORKING AT IOWA STATE UNIVERSITY
     AND ALSO IN THEIR VARIOUS JOBS AFTER LEAVING ISU HAVE MADE IMPORTANT
     CONTRIBUTIONS TO THE CODE:
     IVANA ADAMOVIC, CHRISTINE AIKENS, YURI ALEXEEV, POOJA ARORA, ROB BELL,
     PRADIPTA BANDYOPADHYAY, JONATHAN BENTZ, BRETT BODE, GALINA CHABAN,
     WEI CHEN, CHEOL HO CHOI, PAUL DAY, TIM DUDLEY, DMITRI FEDOROV,
     GRAHAM FLETCHER, MARK FREITAG, KURT GLAESEMANN, DAN KEMP, GRANT MERRILL,
     JONATHAN MULLIN, TAKESHI NAGATA, SEAN NEDD, HEATHER NETZLOFF,
     BOSILJKA NJEGIC, RYAN OLSON, MIKE PAK, JIM SHOEMAKER, LYUDMILA SLIPCHENKO,
     SAROM SOK, JIE SONG, TETSUYA TAKETSUGU, SIMON WEBB, SOOHAENG YOO.

     ADDITIONAL CODE HAS BEEN PROVIDED BY COLLABORATORS IN OTHER GROUPS:
     IOWA STATE UNIVERSITY: JOE IVANIC, KLAUS RUEDENBERG
     UNIVERSITY OF TOKYO: KIMIHIKO HIRAO, TAKAHITO NAKAJIMA,
          TAKAO TSUNEDA, MUNEAKI KAMIYA, SUSUMU YANAGISAWA,
          KIYOSHI YAGI, MAHITO CHIBA, SEIKEN TOKURA, NAOAKI KAWAKAMI
     UNIVERSITY OF AARHUS: FRANK JENSEN
     UNIVERSITY OF IOWA: VISVALDAS KAIRYS, HUI LI
     NATIONAL INST. OF STANDARDS AND TECHNOLOGY: WALT STEVENS, DAVID GARMER
     UNIVERSITY OF PISA: BENEDETTA MENNUCCI, JACOPO TOMASI
     UNIVERSITY OF MEMPHIS: HENRY KURTZ, PRAKASHAN KORAMBATH
     UNIVERSITY OF ALBERTA: MARIUSZ KLOBUKOWSKI
     UNIVERSITY OF NEW ENGLAND: MARK SPACKMAN
     MIE UNIVERSITY: HIROAKI UMEDA
     MICHIGAN STATE UNIVERSITY:
          KAROL KOWALSKI, MARTA WLOCH, JEFFREY R. GOUR, PIOTR PIECUCH
     UNIVERSITY OF SILESIA: MONIKA MUSIAL, STANISLAW KUCHARSKI
     FACULTES UNIVERSITAIRES NOTRE-DAME DE LA PAIX:
          OLIVIER QUINET, BENOIT CHAMPAGNE
     UNIVERSITY OF CALIFORNIA - SANTA BARBARA: BERNARD KIRTMAN
     INSTITUTE FOR MOLECULAR SCIENCE: KAZUYA ISHIMURA AND SHIGERU NAGASE
     UNIVERSITY OF NOTRE DAME: DAN CHIPMAN
     KYUSHU UNIVERSITY:
          HARUYUKI NAKANO,
          FENG LONG GU, JACEK KORCHOWIEC, MARCIN MAKOWSKI, AND YURIKO AOKI,
          HIROTOSHI MORI AND EISAKU MIYOSHI
     PENNSYLVANIA STATE UNIVERSITY:
          TZVETELIN IORDANOV, CHET SWALINA, JONATHAN SKONE,
          SHARON HAMMES-SCHIFFER

 EXECUTION OF GAMESS BEGUN Sun Apr 26 10:28:13 2009

            ECHO OF THE FIRST FEW INPUT CARDS -
 INPUT CARD> $CONTRL SCFTYP=RHF RUNTYP=OPTIMIZE                                             
 INPUT CARD>       ICHARG=0 MULT=1 COORD=ZMTMPC $END                                        
 INPUT CARD> $DFT DFTTYP=B3LYP $END                                                         
 INPUT CARD> $BASIS GBASIS=N311 NGAUSS=6 NDFUNC=1 NPFUNC=1 DIFFSP=.TRUE. $END               
 INPUT CARD> $DATA                                                                          
 INPUT CARD>CO                                                                              
 INPUT CARD>C1 1                                                                            
 INPUT CARD>C 0.0000000 0 0.0000000 0 0.0000000 0 0 0 0                                     
 INPUT CARD>O 1.1700000 1 0.0000000 0 0.0000000 0 1 0 0                                     
 INPUT CARD> $END                                                                           
 INPUT CARD>                                                                                
    1000000 WORDS OF MEMORY AVAILABLE

     BASIS OPTIONS
     -------------
     GBASIS=N311         IGAUSS=       6      POLAR=POPN311 
     NDFUNC=       1     NFFUNC=       0     DIFFSP=       T
     NPFUNC=       1      DIFFS=       F

 *** WARNING ***
 KEYWORD DFTTYP IN $DFT IS NOW OBSOLETE.
 PLEASE ENTER DFTTYP IN THE $CONTRL GROUP IN FUTURE INPUT FILES.


     LEBEDEV GRID-BASED DFT OPTIONS
     ------------------------------
     DFTTYP=B3LYP   
     NRAD  =      96     NLEB  =     302
     NRAD0 =      24     NLEB0 =     110
     SWOFF =    5.00E-03 (PURE SCF -> DFT)
     SWITCH=    3.00E-04 (COARSE -> TIGHT GRID)
     THRESH=    0.00E+00 GTHRE=    1.00E+00


     RUN TITLE
     ---------
 CO                                                                              

 THE POINT GROUP OF THE MOLECULE IS C1      
 THE ORDER OF THE PRINCIPAL AXIS IS     1

 YOUR FULLY SUBSTITUTED Z-MATRIX IS
 C   
 O      1   1.1700000

 THE MOMENTS OF INERTIA ARE (AMU-ANGSTROM**2)
 IXX=     9.385   IYY=     9.385   IZZ=     0.000

 ATOM      ATOMIC                      COORDINATES (BOHR)
           CHARGE         X                   Y                   Z
 C           6.0     0.0000000000        0.0000000000       -1.2632445186
 O           8.0     0.0000000000        0.0000000000        0.9477348871

          INTERNUCLEAR DISTANCES (ANGS.)
          ------------------------------

                1 C          2 O     

   1 C       0.0000000    1.1700000 *
   2 O       1.1700000 *  0.0000000  

  * ... LESS THAN  3.000


     ATOMIC BASIS SET
     ----------------
 THE CONTRACTED PRIMITIVE FUNCTIONS HAVE BEEN UNNORMALIZED
 THE CONTRACTED BASIS FUNCTIONS ARE NOW NORMALIZED TO UNITY

  SHELL TYPE  PRIMITIVE        EXPONENT          CONTRACTION COEFFICIENT(S)

 C         

      1   S       1          4563.2400000    0.001966650249
      1   S       2           682.0240000    0.015230601932
      1   S       3           154.9730000    0.076126909656
      1   S       4            44.4553000    0.260801033080
      1   S       5            13.0290000    0.616462078191
      1   S       6             1.8277300    0.221006028032

      2   L       7            20.9642000    0.114660080729    0.040248692673
      2   L       8             4.8033100    0.919999647749    0.237593956746
      2   L       9             1.4593300   -0.003030682134    0.815853851473

      3   L      10             0.4834560    1.000000000000    1.000000000000

      4   L      11             0.1455850    1.000000000000    1.000000000000

      5   L      12             0.0438000    1.000000000000    1.000000000000

      6   D      13             0.6260000    1.000000000000

 O         

      7   S      14          8588.5000000    0.001895150083
      7   S      15          1297.2300000    0.014385900631
      7   S      16           299.2960000    0.070732003103
      7   S      17            87.3771000    0.240001010530
      7   S      18            25.6789000    0.594797026097
      7   S      19             3.7400400    0.280802012320

      8   L      20            42.1175000    0.113889012440    0.036511397380
      8   L      21             9.6283700    0.920811100576    0.237152982984
      8   L      22             2.8533200   -0.003274470358    0.819701941186

      9   L      23             0.9056610    1.000000000000    1.000000000000

     10   L      24             0.2556110    1.000000000000    1.000000000000

     11   L      25             0.0845000    1.000000000000    1.000000000000

     12   D      26             1.2920000    1.000000000000

 TOTAL NUMBER OF BASIS SET SHELLS             =   12
 NUMBER OF CARTESIAN GAUSSIAN BASIS FUNCTIONS =   46
 NUMBER OF ELECTRONS                          =   14
 CHARGE OF MOLECULE                           =    0
 SPIN MULTIPLICITY                            =    1
 NUMBER OF OCCUPIED ORBITALS (ALPHA)          =    7
 NUMBER OF OCCUPIED ORBITALS (BETA )          =    7
 TOTAL NUMBER OF ATOMS                        =    2
 THE NUCLEAR REPULSION ENERGY IS       21.7098358663

 THIS MOLECULE IS RECOGNIZED AS BEING LINEAR.

     $CONTRL OPTIONS
     ---------------
 SCFTYP=RHF          RUNTYP=OPTIMIZE     EXETYP=RUN     
 MPLEVL=       0     CITYP =NONE         CCTYP =NONE         VBTYP =NONE    
 DFTTYP=B3LYP        TDDFT =NONE    
 MULT  =       1     ICHARG=       0     NZVAR =       0     COORD =ZMTMPC  
 PP    =NONE         RELWFN=NONE         LOCAL =NONE         NUMGRD=       F
 ISPHER=      -1     NOSYM =       0     MAXIT =      30     UNITS =ANGS    
 PLTORB=       F     MOLPLT=       F     AIMPAC=       F     FRIEND=        
 NPRINT=       7     IREST =       0     GEOM  =INPUT   
 NORMF =       0     NORMP =       0     ITOL  =      20     ICUT  =       9
 INTTYP=BEST         GRDTYP=BEST         QMTTOL= 1.0E-06

     $SYSTEM OPTIONS
     ---------------
  REPLICATED MEMORY=     1000000 WORDS (ON EVERY NODE).
 DISTRIBUTED MEMDDI=           0 MILLION WORDS IN AGGREGATE,
 MEMDDI DISTRIBUTED OVER   1 PROCESSORS IS           0 WORDS/PROCESSOR.
 TOTAL MEMORY REQUESTED ON EACH PROCESSOR=     1000000 WORDS.
 TIMLIM=      525600.00 MINUTES, OR   365.00 DAYS.
 PARALL= F  BALTYP=  NXTVAL  KDIAG=    0  COREFL= F

          ----------------
          PROPERTIES INPUT
          ----------------

     MOMENTS            FIELD           POTENTIAL          DENSITY
 IEMOM =       1   IEFLD =       0   IEPOT =       0   IEDEN =       0
 WHERE =COMASS     WHERE =NUCLEI     WHERE =NUCLEI     WHERE =NUCLEI  
 OUTPUT=BOTH       OUTPUT=BOTH       OUTPUT=BOTH       OUTPUT=BOTH    
 IEMINT=       0   IEFINT=       0                     IEDINT=       0
                                                       MORB  =       0
          EXTRAPOLATION IN EFFECT
          DIIS IN EFFECT
 ORBITAL PRINTING OPTION: NPREO=   1  46   2   1

     -------------------------------
     INTEGRAL TRANSFORMATION OPTIONS
     -------------------------------
     NWORD  =         0     CUTOFF = 1.0E-09
     MPTRAN =         0     DIRTRF =       F
     AOINTS =DUP     

          ----------------------
          INTEGRAL INPUT OPTIONS
          ----------------------
 NOPK  =       1 NORDER=       0 SCHWRZ=       F

   --- ENCODED Z MATRIX ---
 COORD  TYPE   I   J   K   L   M   N
    1      1    2   1

 THE DETERMINANT OF THE G MATRIX IS 10**(    -1)

     ------------------------------------------
     THE POINT GROUP IS C1 , NAXIS= 1, ORDER= 1
     ------------------------------------------

     DIMENSIONS OF THE SYMMETRY SUBSPACES ARE
 A   =   46

 ..... DONE SETTING UP THE RUN .....
 STEP CPU TIME =     0.11 TOTAL CPU TIME =        0.1 (    0.0 MIN)
 TOTAL WALL CLOCK TIME=        0.0 SECONDS, CPU UTILIZATION IS 100.00%


          -----------------------------
          STATIONARY POINT LOCATION RUN
          -----------------------------

 OBTAINING INITIAL HESSIAN, HESS=GUESS   
 CARTESIAN COORDINATE OPTIMIZATION USING BADGER'S RULE FORCE CONSTANT GUESS

          PARAMETERS CONTROLLING GEOMETRY SEARCH ARE
          METHOD =QA                  UPHESS =BFGS    
          NNEG   =         0          NFRZ   =         0
          NSTEP  =        20          IFOLOW =         1
          HESS   =GUESS               RESTAR =         F
          IHREP  =         0          HSSEND =         F
          NPRT   =         0          NPUN   =         0
          OPTTOL = 1.000E-04          RMIN   = 1.500E-03
          RMAX   = 1.000E-01          RLIM   = 7.000E-02
          DXMAX  = 3.000E-01          PURIFY =         F
          MOVIE  =         F          TRUPD  =         T
          TRMAX  = 5.000E-01          TRMIN  = 5.000E-02
          ITBMAT =         5          STPT   =         F
          STSTEP = 1.000E-02          PROJCT=          T

 BEGINNING GEOMETRY SEARCH POINT NSERCH=   0 ...

 COORDINATES OF ALL ATOMS ARE (ANGS)
   ATOM   CHARGE       X              Y              Z
 ------------------------------------------------------------
 C           6.0   0.0000000000   0.0000000000  -0.6684802594
 O           8.0   0.0000000000   0.0000000000   0.5015197406

 THE CURRENT FULLY SUBSTITUTED Z-MATRIX IS
 C   
 O      1   1.1700000

          ********************
          1 ELECTRON INTEGRALS
          ********************
 ...... END OF ONE-ELECTRON INTEGRALS ......
 STEP CPU TIME =     0.01 TOTAL CPU TIME =        0.1 (    0.0 MIN)
 TOTAL WALL CLOCK TIME=        0.0 SECONDS, CPU UTILIZATION IS 100.00%

          -------------
          GUESS OPTIONS
          -------------
          GUESS =HUCKEL            NORB  =       0          NORDER=       0
          MIX   =       F          PRTMO =       F          PUNMO =       F
          TOLZ  = 1.0E-08          TOLE  = 1.0E-05
          SYMDEN=       F          PURIFY=       F

 INITIAL GUESS ORBITALS GENERATED BY HUCKEL   ROUTINE.
 HUCKEL GUESS REQUIRES     17568 WORDS.

 SYMMETRIES FOR INITIAL GUESS ORBITALS FOLLOW.   BOTH SET(S).
     7 ORBITALS ARE OCCUPIED (    2 CORE ORBITALS).
     3=A        4=A        5=A        6=A        7=A        8=A        9=A   
    10=A       11=A       12=A       13=A       14=A       15=A       16=A   
    17=A   
 ...... END OF INITIAL ORBITAL SELECTION ......
 STEP CPU TIME =     0.05 TOTAL CPU TIME =        0.2 (    0.0 MIN)
 TOTAL WALL CLOCK TIME=        2.0 SECONDS, CPU UTILIZATION IS   8.50%

                    ----------------------
                    AO INTEGRAL TECHNOLOGY
                    ----------------------
     S,P,L SHELL ROTATED AXIS INTEGRALS, REPROGRAMMED BY
        KAZUYA ISHIMURA (IMS) AND JOSE SIERRA (SYNSTAR).
     S,P,D,L SHELL ROTATED AXIS INTEGRALS PROGRAMMED BY
        KAZUYA ISHIMURA (INSTITUTE FOR MOLECULAR SCIENCE).
     S,P,D,F,G SHELL TO TOTAL QUARTET ANGULAR MOMENTUM SUM 5,
        ERIC PROGRAM BY GRAHAM FLETCHER (ELORET AND NASA ADVANCED
        SUPERCOMPUTING DIVISION, AMES RESEARCH CENTER).
     S,P,D,F,G,L SHELL GENERAL RYS QUADRATURE PROGRAMMED BY
        MICHEL DUPUIS (PACIFIC NORTHWEST NATIONAL LABORATORY).

          --------------------
          2 ELECTRON INTEGRALS
          --------------------

 THE -PK- OPTION IS OFF, THE INTEGRALS ARE NOT IN SUPERMATRIX FORM.
 STORING   15000 INTEGRALS/RECORD ON DISK, USING 12 BYTES/INTEGRAL.
 TWO ELECTRON INTEGRAL EVALUATION REQUIRES   90474 WORDS OF MEMORY.
 II,JST,KST,LST =  1  1  1  1 NREC =         1 INTLOC =    1
 II,JST,KST,LST =  2  1  1  1 NREC =         1 INTLOC =    2
 II,JST,KST,LST =  3  1  1  1 NREC =         1 INTLOC =   34
 II,JST,KST,LST =  4  1  1  1 NREC =         1 INTLOC =  214
 II,JST,KST,LST =  5  1  1  1 NREC =         1 INTLOC =  776
 II,JST,KST,LST =  6  1  1  1 NREC =         1 INTLOC = 2074
 II,JST,KST,LST =  7  1  1  1 NREC =         1 INTLOC = 5929
 II,JST,KST,LST =  8  1  1  1 NREC =         1 INTLOC = 8153
 II,JST,KST,LST =  9  1  1  1 NREC =         2 INTLOC = 3916
 II,JST,KST,LST = 10  1  1  1 NREC =         3 INTLOC = 5158
 II,JST,KST,LST = 11  1  1  1 NREC =         4 INTLOC =13338
 II,JST,KST,LST = 12  1  1  1 NREC =         7 INTLOC =   46
 TOTAL NUMBER OF NONZERO TWO-ELECTRON INTEGRALS =              154244
         11 INTEGRAL RECORDS WERE STORED ON DISK FILE  8.
  ...... END OF TWO-ELECTRON INTEGRALS .....
 STEP CPU TIME =     0.81 TOTAL CPU TIME =        1.0 (    0.0 MIN)
 TOTAL WALL CLOCK TIME=        2.0 SECONDS, CPU UTILIZATION IS  49.00%

          --------------------------
             R-B3LYP SCF CALCULATION
          --------------------------

     NUCLEAR ENERGY =        21.7098358663
     MAXIT =   30     NPUNCH=    2
     EXTRAP=T  DAMP=F  SHIFT=F  RSTRCT=F  DIIS=T  DEM=F  SOSCF=F
         DENSITY MATRIX CONVERGENCE THRESHOLD=  1.00E-05
     COARSE -> FINE DFT GRID SWITCH THRESHOLD=  3.00E-04 (SWITCH IN $DFT)
                   HF -> DFT SWITCH THRESHOLD=  5.00E-03 (SWOFF IN $DFT)
     MEMORY REQUIRED FOR RHF ITERS=    150625 WORDS.

 DFT CODE IS SWITCHING FROM THE FINE GRID NRAD= 96,  NLEB=  302
                      TO THE COARSE GRID NRAD0= 24, NLEB0=  110

     EXCHANGE FUNCTIONAL   =B88&HFX   
     CORRELATION FUNCTIONAL=LYP88&VWN5
     DFT THRESHOLD         =.690E-07
     GRID CHANGE THRESHOLD =.300E-03
 DFT IS SWITCHED OFF, PERFORMING PURE SCF UNTIL SWOFF THRESHOLD IS REACHED.

 ITER EX DEM     TOTAL ENERGY        E CHANGE  DENSITY CHANGE    DIIS ERROR
   1  0  0     -112.2966744465  -112.2966744465   0.364455073   0.771180320
          * * *   INITIATING DIIS PROCEDURE   * * *
   2  1  0     -112.6756500033    -0.3789755569   0.169758927   0.342363608
   3  2  0     -112.6881833320    -0.0125333287   0.105699337   0.278902543
   4  3  0     -112.7606245601    -0.0724412281   0.015518573   0.029924000
   5  4  0     -112.7611682096    -0.0005436495   0.002780762   0.004564016
 CONVERGED TO SWOFF, SO DFT CALCULATION IS NOW SWITCHED ON.
          * * *   INITIATING DIIS PROCEDURE   * * *
   6  5  0     -113.2821108331    -0.5209426235   0.052265225   0.124677552
   7  6  0     -113.2924320251    -0.0103211919   0.070304699   0.066400051
   8  7  0     -113.2812081276     0.0112238974   0.028566399   0.134439039
   9  8  0     -113.2969969592    -0.0157888316   0.008289372   0.006983625
  10  9  0     -113.2970872678    -0.0000903086   0.000613785   0.000833645
  11 10  0     -113.2970884119    -0.0000011441   0.000119586   0.000214920
 DFT CODE IS SWITCHING BACK TO THE FINE GRID
          * * *   INITIATING DIIS PROCEDURE   * * *
  12 11  0     -113.2945637893     0.0025246226   0.001972682   0.002518313
  13 12  0     -113.2945725079    -0.0000087186   0.000582917   0.000804946
  14 13  0     -113.2945705589     0.0000019490   0.000404051   0.001794679
  15 14  0     -113.2945731694    -0.0000026105   0.000066488   0.000087809
  16 15  0     -113.2945731837    -0.0000000143   0.000023648   0.000027234
  17 16  0     -113.2945731846    -0.0000000009   0.000003970   0.000002951
  18 17  0     -113.2945731846     0.0000000000   0.000000459   0.000000949

          -----------------
          DENSITY CONVERGED
          -----------------
     TIME TO FORM FOCK OPERATORS=      35.6 SECONDS (       2.0 SEC/ITER)
     TIME TO SOLVE SCF EQUATIONS=       0.2 SECONDS (       0.0 SEC/ITER)

 FINAL R-B3LYP ENERGY IS     -113.2945731846 AFTER  18 ITERATIONS
 DFT EXCHANGE + CORRELATION ENERGY =       -11.1463046677
 TOTAL ELECTRON NUMBER             =        13.9999994398

          ------------
          EIGENVECTORS
          ------------

                      1          2          3          4          5
                  -19.2404   -10.3108    -1.1520    -0.5830    -0.4695
                     A          A          A          A          A   
    1  C  1  S    0.000027   0.563483  -0.061774   0.078347   0.000000
    2  C  1  S   -0.000077   0.460071  -0.094778   0.124032   0.000000
    3  C  1  X    0.000000   0.000000   0.000000   0.000000   0.000000
    4  C  1  Y    0.000000   0.000000   0.000000   0.000000   0.145308
    5  C  1  Z   -0.000011   0.002709   0.103562  -0.054398   0.000000
    6  C  1  S    0.000109   0.020991   0.243942  -0.369655   0.000000
    7  C  1  X    0.000000   0.000000   0.000000   0.000000   0.000000
    8  C  1  Y    0.000000   0.000000   0.000000   0.000000   0.220758
    9  C  1  Z    0.000681  -0.002010   0.120325  -0.078468   0.000000
   10  C  1  S   -0.000346   0.009956   0.075165  -0.283134   0.000000
   11  C  1  X    0.000000   0.000000   0.000000   0.000000   0.000000
   12  C  1  Y    0.000000   0.000000   0.000000   0.000000   0.114598
   13  C  1  Z   -0.000363   0.002366   0.007681  -0.028288   0.000000
   14  C  1  S    0.000360   0.001313   0.021980  -0.003311   0.000000
   15  C  1  X    0.000000   0.000000   0.000000   0.000000   0.000000
   16  C  1  Y    0.000000   0.000000   0.000000   0.000000   0.006711
   17  C  1  Z    0.000250   0.000444   0.012958   0.005977   0.000000
   18  C  1 XX   -0.000126  -0.007949  -0.022137   0.009009   0.000000
   19  C  1 YY   -0.000126  -0.007949  -0.022137   0.009009   0.000000
   20  C  1 ZZ    0.000664  -0.007988   0.025263  -0.009866   0.000000
   21  C  1 XY    0.000000   0.000000   0.000000   0.000000   0.000000
   22  C  1 XZ    0.000000   0.000000   0.000000   0.000000   0.000000
   23  C  1 YZ    0.000000   0.000000   0.000000   0.000000   0.050573
   24  O  2  S    0.551734  -0.000148  -0.110975  -0.063235   0.000000
   25  O  2  S    0.466369  -0.000225  -0.178339  -0.104534   0.000000
   26  O  2  X    0.000000   0.000000   0.000000   0.000000   0.000000
   27  O  2  Y    0.000000   0.000000   0.000000   0.000000   0.261175
   28  O  2  Z   -0.001367  -0.000228  -0.081692   0.224775   0.000000
   29  O  2  S    0.020778   0.000792   0.516519   0.318589   0.000000
   30  O  2  X    0.000000   0.000000   0.000000   0.000000   0.000000
   31  O  2  Y    0.000000   0.000000   0.000000   0.000000   0.383285
   32  O  2  Z    0.000909  -0.000876  -0.118200   0.315684   0.000000
   33  O  2  S    0.001362   0.000366   0.333156   0.415834   0.000000
   34  O  2  X    0.000000   0.000000   0.000000   0.000000   0.000000
   35  O  2  Y    0.000000   0.000000   0.000000   0.000000   0.304612
   36  O  2  Z   -0.000274  -0.000471  -0.034822   0.176498   0.000000
   37  O  2  S   -0.000737  -0.006618  -0.059513   0.079949   0.000000
   38  O  2  X    0.000000   0.000000   0.000000   0.000000   0.000000
   39  O  2  Y    0.000000   0.000000   0.000000   0.000000   0.022358
   40  O  2  Z    0.000003   0.002827   0.010883  -0.006988   0.000000
   41  O  2 XX   -0.005961  -0.000073  -0.010814   0.005158   0.000000
   42  O  2 YY   -0.005961  -0.000073  -0.010814   0.005158   0.000000
   43  O  2 ZZ   -0.006044   0.000134   0.016246  -0.023748   0.000000
   44  O  2 XY    0.000000   0.000000   0.000000   0.000000   0.000000
   45  O  2 XZ    0.000000   0.000000   0.000000   0.000000   0.000000
   46  O  2 YZ    0.000000   0.000000   0.000000   0.000000  -0.024136

                      6          7          8          9         10
                   -0.4695    -0.3881    -0.0542    -0.0542     0.0295
                     A          A          A          A          A   
    1  C  1  S    0.000000  -0.076387   0.000000   0.000000   0.022232
    2  C  1  S    0.000000  -0.122307   0.000000   0.000000   0.035430
    3  C  1  X    0.145308   0.000000   0.000000   0.241086   0.000000
    4  C  1  Y    0.000000   0.000000   0.241086   0.000000   0.000000
    5  C  1  Z    0.000000  -0.210415   0.000000   0.000000   0.059023
    6  C  1  S    0.000000   0.351756   0.000000   0.000000  -0.166490
    7  C  1  X    0.220758   0.000000   0.000000   0.371890   0.000000
    8  C  1  Y    0.000000   0.000000   0.371890   0.000000   0.000000
    9  C  1  Z    0.000000  -0.279037   0.000000   0.000000   0.047287
   10  C  1  S    0.000000   0.512995   0.000000   0.000000   0.305981
   11  C  1  X    0.114598   0.000000   0.000000   0.540033   0.000000
   12  C  1  Y    0.000000   0.000000   0.540033   0.000000   0.000000
   13  C  1  Z    0.000000  -0.133530   0.000000   0.000000   0.460272
   14  C  1  S    0.000000   0.065503   0.000000   0.000000   2.250507
   15  C  1  X    0.006711   0.000000   0.000000   0.291133   0.000000
   16  C  1  Y    0.000000   0.000000   0.291133   0.000000   0.000000
   17  C  1  Z    0.000000  -0.004164   0.000000   0.000000   0.731347
   18  C  1 XX    0.000000   0.019201   0.000000   0.000000  -0.005038
   19  C  1 YY    0.000000   0.019201   0.000000   0.000000  -0.005038
   20  C  1 ZZ    0.000000  -0.027317   0.000000   0.000000  -0.017489
   21  C  1 XY    0.000000   0.000000   0.000000   0.000000   0.000000
   22  C  1 XZ    0.050573   0.000000   0.000000  -0.014738   0.000000
   23  C  1 YZ    0.000000   0.000000  -0.014738   0.000000   0.000000
   24  O  2  S    0.000000   0.005801   0.000000   0.000000   0.020423
   25  O  2  S    0.000000   0.009540   0.000000   0.000000   0.033433
   26  O  2  X    0.261175   0.000000   0.000000  -0.182466   0.000000
   27  O  2  Y    0.000000   0.000000  -0.182466   0.000000   0.000000
   28  O  2  Z    0.000000   0.140123   0.000000   0.000000  -0.027778
   29  O  2  S    0.000000  -0.033613   0.000000   0.000000  -0.129949
   30  O  2  X    0.383285   0.000000   0.000000  -0.268839   0.000000
   31  O  2  Y    0.000000   0.000000  -0.268839   0.000000   0.000000
   32  O  2  Z    0.000000   0.199453   0.000000   0.000000  -0.046948
   33  O  2  S    0.000000  -0.017280   0.000000   0.000000  -0.173075
   34  O  2  X    0.304612   0.000000   0.000000  -0.321113   0.000000
   35  O  2  Y    0.000000   0.000000  -0.321113   0.000000   0.000000
   36  O  2  Z    0.000000   0.146706   0.000000   0.000000   0.009743
   37  O  2  S    0.000000  -0.004843   0.000000   0.000000  -1.842082
   38  O  2  X    0.022358   0.000000   0.000000  -0.255913   0.000000
   39  O  2  Y    0.000000   0.000000  -0.255913   0.000000   0.000000
   40  O  2  Z    0.000000   0.025180   0.000000   0.000000   0.481432
   41  O  2 XX    0.000000   0.005576   0.000000   0.000000  -0.003366
   42  O  2 YY    0.000000   0.005576   0.000000   0.000000  -0.003366
   43  O  2 ZZ    0.000000  -0.013714   0.000000   0.000000  -0.001483
   44  O  2 XY    0.000000   0.000000   0.000000   0.000000   0.000000
   45  O  2 XZ   -0.024136   0.000000   0.000000  -0.012108   0.000000
   46  O  2 YZ    0.000000   0.000000  -0.012108   0.000000   0.000000

                     11         12         13         14         15
                    0.0589     0.0701     0.0701     0.1753     0.2070
                     A          A          A          A          A   
    1  C  1  S   -0.027387   0.000000   0.000000  -0.020735   0.000000
    2  C  1  S   -0.047608   0.000000   0.000000  -0.043707   0.000000
    3  C  1  X    0.000000   0.000000  -0.136717   0.000000   0.000000
    4  C  1  Y    0.000000  -0.136717   0.000000   0.000000   0.012368
    5  C  1  Z   -0.036478   0.000000   0.000000   0.011301   0.000000
    6  C  1  S    0.132534   0.000000   0.000000   0.004480   0.000000
    7  C  1  X    0.000000   0.000000  -0.177881   0.000000   0.000000
    8  C  1  Y    0.000000  -0.177881   0.000000   0.000000   0.077194
    9  C  1  Z   -0.014701   0.000000   0.000000  -0.009360   0.000000
   10  C  1  S    0.443378   0.000000   0.000000   1.973729   0.000000
   11  C  1  X    0.000000   0.000000  -0.450602   0.000000   0.000000
   12  C  1  Y    0.000000  -0.450602   0.000000   0.000000  -0.213884
   13  C  1  Z   -0.172458   0.000000   0.000000   0.143030   0.000000
   14  C  1  S   -0.351729   0.000000   0.000000   0.241666   0.000000
   15  C  1  X    0.000000   0.000000   1.195970   0.000000   0.000000
   16  C  1  Y    0.000000   1.195971   0.000000   0.000000  -1.095627
   17  C  1  Z    1.234593   0.000000   0.000000  -0.547386   0.000000
   18  C  1 XX    0.001265   0.000000   0.000000  -0.060037   0.000000
   19  C  1 YY    0.001265   0.000000   0.000000  -0.060037   0.000000
   20  C  1 ZZ   -0.031573   0.000000   0.000000  -0.019303   0.000000
   21  C  1 XY    0.000000   0.000000   0.000000   0.000000   0.000000
   22  C  1 XZ    0.000000   0.000000  -0.017170   0.000000   0.000000
   23  C  1 YZ    0.000000  -0.017170   0.000000   0.000000  -0.001718
   24  O  2  S    0.015424   0.000000   0.000000   0.005857   0.000000
   25  O  2  S    0.025279   0.000000   0.000000   0.011167   0.000000
   26  O  2  X    0.000000   0.000000   0.011383   0.000000   0.000000
   27  O  2  Y    0.000000   0.011383   0.000000   0.000000  -0.126774
   28  O  2  Z    0.010280   0.000000   0.000000  -0.060340   0.000000
   29  O  2  S   -0.097710   0.000000   0.000000  -0.027165   0.000000
   30  O  2  X    0.000000   0.000000   0.005676   0.000000   0.000000
   31  O  2  Y    0.000000   0.005676   0.000000   0.000000  -0.137052
   32  O  2  Z    0.014780   0.000000   0.000000  -0.066528   0.000000
   33  O  2  S   -0.070782   0.000000   0.000000  -0.160243   0.000000
   34  O  2  X    0.000000   0.000000   0.094719   0.000000   0.000000
   35  O  2  Y    0.000000   0.094719   0.000000   0.000000  -0.494261
   36  O  2  Z    0.022698   0.000000   0.000000  -0.192009   0.000000
   37  O  2  S   -0.347403   0.000000   0.000000  -1.204378   0.000000
   38  O  2  X    0.000000   0.000000  -0.045195   0.000000   0.000000
   39  O  2  Y    0.000000  -0.045196   0.000000   0.000000   1.957930
   40  O  2  Z   -0.106173   0.000000   0.000000   2.221061   0.000000
   41  O  2 XX   -0.002618   0.000000   0.000000  -0.006209   0.000000
   42  O  2 YY   -0.002618   0.000000   0.000000  -0.006209   0.000000
   43  O  2 ZZ   -0.001817   0.000000   0.000000   0.028405   0.000000
   44  O  2 XY    0.000000   0.000000   0.000000   0.000000   0.000000
   45  O  2 XZ    0.000000   0.000000   0.012382   0.000000   0.000000
   46  O  2 YZ    0.000000   0.012382   0.000000   0.000000   0.012849

                     16         17         18         19         20
                    0.2070     0.2602     0.3789     0.5223     0.5223
                     A          A          A          A          A   
    1  C  1  S    0.000000   0.009448   0.054815   0.000000   0.000000
    2  C  1  S    0.000000   0.021027   0.093941   0.000000   0.000000
    3  C  1  X    0.012368   0.000000   0.000000   0.000000  -0.251532
    4  C  1  Y    0.000000   0.000000   0.000000  -0.251532   0.000000
    5  C  1  Z    0.000000   0.047504  -0.062202   0.000000   0.000000
    6  C  1  S    0.000000  -0.004190  -0.263859   0.000000   0.000000
    7  C  1  X    0.077194   0.000000   0.000000   0.000000  -0.895172
    8  C  1  Y    0.000000   0.000000   0.000000  -0.895173   0.000000
    9  C  1  Z    0.000000   0.109684  -0.130286   0.000000   0.000000
   10  C  1  S    0.000000  -1.898356  -4.534341   0.000000   0.000000
   11  C  1  X   -0.213884   0.000000   0.000000   0.000000   1.747784
   12  C  1  Y    0.000000   0.000000   0.000000   1.747784   0.000000
   13  C  1  Z    0.000000  -0.295776  -3.090909   0.000000   0.000000
   14  C  1  S    0.000000  -3.098824  -1.812133   0.000000   0.000000
   15  C  1  X   -1.095627   0.000000   0.000000   0.000000  -0.615396
   16  C  1  Y    0.000000   0.000000   0.000000  -0.615396   0.000000
   17  C  1  Z    0.000000  -1.637828   0.162156   0.000000   0.000000
   18  C  1 XX    0.000000   0.045917  -0.011179   0.000000   0.000000
   19  C  1 YY    0.000000   0.045917  -0.011179   0.000000   0.000000
   20  C  1 ZZ    0.000000  -0.008172   0.026816   0.000000   0.000000
   21  C  1 XY    0.000000   0.000000   0.000000   0.000000   0.000000
   22  C  1 XZ   -0.001718   0.000000   0.000000   0.000000  -0.038885
   23  C  1 YZ    0.000000   0.000000   0.000000  -0.038885   0.000000
   24  O  2  S    0.000000   0.043933  -0.025342   0.000000   0.000000
   25  O  2  S    0.000000   0.079910  -0.046490   0.000000   0.000000
   26  O  2  X   -0.126774   0.000000   0.000000   0.000000   0.018749
   27  O  2  Y    0.000000   0.000000   0.000000   0.018749   0.000000
   28  O  2  Z    0.000000  -0.015413  -0.150369   0.000000   0.000000
   29  O  2  S    0.000000  -0.209763   0.076809   0.000000   0.000000
   30  O  2  X   -0.137052   0.000000   0.000000   0.000000   0.049865
   31  O  2  Y    0.000000   0.000000   0.000000   0.049865   0.000000
   32  O  2  Z    0.000000   0.034542  -0.198291   0.000000   0.000000
   33  O  2  S    0.000000  -1.291742   1.765580   0.000000   0.000000
   34  O  2  X   -0.494261   0.000000   0.000000   0.000000  -0.151640
   35  O  2  Y    0.000000   0.000000   0.000000  -0.151640   0.000000
   36  O  2  Z    0.000000  -0.279178  -1.145227   0.000000   0.000000
   37  O  2  S    0.000000   6.237263   4.817648   0.000000   0.000000
   38  O  2  X    1.957930   0.000000   0.000000   0.000000  -0.229874
   39  O  2  Y    0.000000   0.000000   0.000000  -0.229873   0.000000
   40  O  2  Z    0.000000  -0.924252  -1.619950   0.000000   0.000000
   41  O  2 XX    0.000000   0.029221  -0.016776   0.000000   0.000000
   42  O  2 YY    0.000000   0.029221  -0.016776   0.000000   0.000000
   43  O  2 ZZ    0.000000   0.013293  -0.017721   0.000000   0.000000
   44  O  2 XY    0.000000   0.000000   0.000000   0.000000   0.000000
   45  O  2 XZ    0.012849   0.000000   0.000000   0.000000   0.018403
   46  O  2 YZ    0.000000   0.000000   0.000000   0.018403   0.000000

                     21         22         23         24         25
                    0.6132     0.7667     0.9897     1.0176     1.0176
                     A          A          A          A          A   
    1  C  1  S    0.026826   0.102422   0.034600   0.000000   0.000000
    2  C  1  S    0.022354   0.129064   0.062472   0.000000   0.000000
    3  C  1  X    0.000000   0.000000   0.000000   0.000000   0.007527
    4  C  1  Y    0.000000   0.000000   0.000000   0.007527   0.000000
    5  C  1  Z    0.296741  -0.158547  -0.145272   0.000000   0.000000
    6  C  1  S   -0.505811  -1.969959  -0.092986   0.000000   0.000000
    7  C  1  X    0.000000   0.000000   0.000000   0.000000  -0.160273
    8  C  1  Y    0.000000   0.000000   0.000000  -0.160273   0.000000
    9  C  1  Z    1.016978  -0.531142   0.378569   0.000000   0.000000
   10  C  1  S    3.258297   5.913130   4.861217   0.000000   0.000000
   11  C  1  X    0.000000   0.000000   0.000000   0.000000  -0.190288
   12  C  1  Y    0.000000   0.000000   0.000000  -0.190288   0.000000
   13  C  1  Z   -0.241964   1.795014   2.391632   0.000000   0.000000
   14  C  1  S   -0.008997   0.931650   0.889352   0.000000   0.000000
   15  C  1  X    0.000000   0.000000   0.000000   0.000000   0.525603
   16  C  1  Y    0.000000   0.000000   0.000000   0.525603   0.000000
   17  C  1  Z    0.541416   0.092228   0.252404   0.000000   0.000000
   18  C  1 XX   -0.077880  -0.300493  -0.133375   0.000000   0.000000
   19  C  1 YY   -0.077880  -0.300493  -0.133375   0.000000   0.000000
   20  C  1 ZZ   -0.178747  -0.303111   0.348552   0.000000   0.000000
   21  C  1 XY    0.000000   0.000000   0.000000   0.000000   0.000000
   22  C  1 XZ    0.000000   0.000000   0.000000   0.000000  -0.041660
   23  C  1 YZ    0.000000   0.000000   0.000000  -0.041660   0.000000
   24  O  2  S    0.021444  -0.023311  -0.007868   0.000000   0.000000
   25  O  2  S    0.036966  -0.036954  -0.007625   0.000000   0.000000
   26  O  2  X    0.000000   0.000000   0.000000   0.000000  -0.258705
   27  O  2  Y    0.000000   0.000000   0.000000  -0.258705   0.000000
   28  O  2  Z    0.122637  -0.056385  -0.259491   0.000000   0.000000
   29  O  2  S   -0.097586   0.148672   0.280643   0.000000   0.000000
   30  O  2  X    0.000000   0.000000   0.000000   0.000000  -0.834498
   31  O  2  Y    0.000000   0.000000   0.000000  -0.834498   0.000000
   32  O  2  Z    0.176185  -0.077131  -0.662435   0.000000   0.000000
   33  O  2  S   -0.657377  -0.462687  -2.571357   0.000000   0.000000
   34  O  2  X    0.000000   0.000000   0.000000   0.000000   1.910769
   35  O  2  Y    0.000000   0.000000   0.000000   1.910769   0.000000
   36  O  2  Z    0.917255  -0.529205   2.944523   0.000000   0.000000
   37  O  2  S   -1.811186  -4.305601  -3.574596   0.000000   0.000000
   38  O  2  X    0.000000   0.000000   0.000000   0.000000  -1.237421
   39  O  2  Y    0.000000   0.000000   0.000000  -1.237421   0.000000
   40  O  2  Z    0.444195   2.254670   0.381095   0.000000   0.000000
   41  O  2 XX   -0.011385   0.037682   0.050902   0.000000   0.000000
   42  O  2 YY   -0.011385   0.037682   0.050902   0.000000   0.000000
   43  O  2 ZZ    0.034906  -0.035981  -0.003648   0.000000   0.000000
   44  O  2 XY    0.000000   0.000000   0.000000   0.000000   0.000000
   45  O  2 XZ    0.000000   0.000000   0.000000   0.000000   0.025888
   46  O  2 YZ    0.000000   0.000000   0.000000   0.025888   0.000000

                     26         27         28         29         30
                    1.2562     1.2562     1.2993     1.3869     1.3869
                     A          A          A          A          A   
    1  C  1  S    0.000000   0.000000   0.004448   0.000000   0.000000
    2  C  1  S    0.000000   0.000000   0.002933   0.000000   0.000000
    3  C  1  X    0.000000   0.000000   0.000000   0.000000  -0.048067
    4  C  1  Y    0.000000   0.000000   0.000000  -0.048067   0.000000
    5  C  1  Z    0.000000   0.000000   0.024116   0.000000   0.000000
    6  C  1  S    0.000000   0.000000  -0.383445   0.000000   0.000000
    7  C  1  X    0.000000   0.000000   0.000000   0.000000  -0.033934
    8  C  1  Y    0.000000   0.000000   0.000000  -0.033934   0.000000
    9  C  1  Z    0.000000   0.000000  -0.476590   0.000000   0.000000
   10  C  1  S    0.000000   0.000000  -0.900486   0.000000   0.000000
   11  C  1  X    0.000000   0.000000   0.000000   0.000000   0.290968
   12  C  1  Y    0.000000   0.000000   0.000000   0.290968   0.000000
   13  C  1  Z    0.000000   0.000000  -0.915611   0.000000   0.000000
   14  C  1  S    0.000000   0.000000   1.306978   0.000000   0.000000
   15  C  1  X    0.000000   0.000000   0.000000   0.000000  -0.115396
   16  C  1  Y    0.000000   0.000000   0.000000  -0.115396   0.000000
   17  C  1  Z    0.000000   0.000000   0.797246   0.000000   0.000000
   18  C  1 XX    0.854652   0.000000   0.038701   0.000000   0.000000
   19  C  1 YY   -0.854652   0.000000   0.038701   0.000000   0.000000
   20  C  1 ZZ    0.000000   0.000000  -0.295672   0.000000   0.000000
   21  C  1 XY    0.000000   0.986867   0.000000   0.000000   0.000000
   22  C  1 XZ    0.000000   0.000000   0.000000   0.000000   1.024288
   23  C  1 YZ    0.000000   0.000000   0.000000   1.024288   0.000000
   24  O  2  S    0.000000   0.000000   0.101091   0.000000   0.000000
   25  O  2  S    0.000000   0.000000   0.133794   0.000000   0.000000
   26  O  2  X    0.000000   0.000000   0.000000   0.000000  -0.064770
   27  O  2  Y    0.000000   0.000000   0.000000  -0.064770   0.000000
   28  O  2  Z    0.000000   0.000000  -0.054055   0.000000   0.000000
   29  O  2  S    0.000000   0.000000  -1.621191   0.000000   0.000000
   30  O  2  X    0.000000   0.000000   0.000000   0.000000  -0.106777
   31  O  2  Y    0.000000   0.000000   0.000000  -0.106777   0.000000
   32  O  2  Z    0.000000   0.000000  -0.276009   0.000000   0.000000
   33  O  2  S    0.000000   0.000000   4.782215   0.000000   0.000000
   34  O  2  X    0.000000   0.000000   0.000000   0.000000  -0.484617
   35  O  2  Y    0.000000   0.000000   0.000000  -0.484617   0.000000
   36  O  2  Z    0.000000   0.000000  -0.546384   0.000000   0.000000
   37  O  2  S    0.000000   0.000000  -2.879781   0.000000   0.000000
   38  O  2  X    0.000000   0.000000   0.000000   0.000000   0.163210
   39  O  2  Y    0.000000   0.000000   0.000000   0.163210   0.000000
   40  O  2  Z    0.000000   0.000000   0.057091   0.000000   0.000000
   41  O  2 XX    0.077800   0.000000  -0.205990   0.000000   0.000000
   42  O  2 YY   -0.077800   0.000000  -0.205990   0.000000   0.000000
   43  O  2 ZZ    0.000000   0.000000  -0.217401   0.000000   0.000000
   44  O  2 XY    0.000000   0.089835   0.000000   0.000000   0.000000
   45  O  2 XZ    0.000000   0.000000   0.000000   0.000000  -0.150592
   46  O  2 YZ    0.000000   0.000000   0.000000  -0.150592   0.000000

                     31         32         33         34         35
                    1.9789     2.5995     2.5995     2.7634     2.7634
                     A          A          A          A          A   
    1  C  1  S   -0.017486   0.000000   0.000000   0.000000   0.000000
    2  C  1  S   -0.043672   0.000000   0.000000   0.000000   0.000000
    3  C  1  X    0.000000   0.000000  -1.266329   0.000000   0.000000
    4  C  1  Y    0.000000  -1.266329   0.000000   0.000000   0.000000
    5  C  1  Z    0.400030   0.000000   0.000000   0.000000   0.000000
    6  C  1  S   -0.230845   0.000000   0.000000   0.000000   0.000000
    7  C  1  X    0.000000   0.000000   1.479101   0.000000   0.000000
    8  C  1  Y    0.000000   1.479101   0.000000   0.000000   0.000000
    9  C  1  Z   -0.048410   0.000000   0.000000   0.000000   0.000000
   10  C  1  S    2.823350   0.000000   0.000000   0.000000   0.000000
   11  C  1  X    0.000000   0.000000  -0.893296   0.000000   0.000000
   12  C  1  Y    0.000000  -0.893296   0.000000   0.000000   0.000000
   13  C  1  Z    1.559702   0.000000   0.000000   0.000000   0.000000
   14  C  1  S    0.548130   0.000000   0.000000   0.000000   0.000000
   15  C  1  X    0.000000   0.000000   0.213346   0.000000   0.000000
   16  C  1  Y    0.000000   0.213346   0.000000   0.000000   0.000000
   17  C  1  Z   -0.061872   0.000000   0.000000   0.000000   0.000000
   18  C  1 XX   -0.723925   0.000000   0.000000  -0.165532   0.000000
   19  C  1 YY   -0.723925   0.000000   0.000000   0.165532   0.000000
   20  C  1 ZZ    1.226229   0.000000   0.000000   0.000000   0.000000
   21  C  1 XY    0.000000   0.000000   0.000000   0.000000  -0.191139
   22  C  1 XZ    0.000000   0.000000  -0.151219   0.000000   0.000000
   23  C  1 YZ    0.000000  -0.151219   0.000000   0.000000   0.000000
   24  O  2  S    0.036792   0.000000   0.000000   0.000000   0.000000
   25  O  2  S    0.053157   0.000000   0.000000   0.000000   0.000000
   26  O  2  X    0.000000   0.000000  -0.020592   0.000000   0.000000
   27  O  2  Y    0.000000  -0.020592   0.000000   0.000000   0.000000
   28  O  2  Z    0.144080   0.000000   0.000000   0.000000   0.000000
   29  O  2  S   -0.531093   0.000000   0.000000   0.000000   0.000000
   30  O  2  X    0.000000   0.000000  -0.043994   0.000000   0.000000
   31  O  2  Y    0.000000  -0.043994   0.000000   0.000000   0.000000
   32  O  2  Z    0.622076   0.000000   0.000000   0.000000   0.000000
   33  O  2  S   -0.978548   0.000000   0.000000   0.000000   0.000000
   34  O  2  X    0.000000   0.000000   0.061577   0.000000   0.000000
   35  O  2  Y    0.000000   0.061576   0.000000   0.000000   0.000000
   36  O  2  Z    0.120443   0.000000   0.000000   0.000000   0.000000
   37  O  2  S   -1.948247   0.000000   0.000000   0.000000   0.000000
   38  O  2  X    0.000000   0.000000   0.120739   0.000000   0.000000
   39  O  2  Y    0.000000   0.120739   0.000000   0.000000   0.000000
   40  O  2  Z    0.819540   0.000000   0.000000   0.000000   0.000000
   41  O  2 XX   -0.109024   0.000000   0.000000   0.867051   0.000000
   42  O  2 YY   -0.109024   0.000000   0.000000  -0.867051   0.000000
   43  O  2 ZZ   -0.003396   0.000000   0.000000   0.000000   0.000000
   44  O  2 XY    0.000000   0.000000   0.000000   0.000000   1.001184
   45  O  2 XZ    0.000000   0.000000  -0.235920   0.000000   0.000000
   46  O  2 YZ    0.000000  -0.235919   0.000000   0.000000   0.000000

                     36         37         38         39         40
                    2.8142     3.1982     3.3007     3.3007     3.6660
                     A          A          A          A          A   
    1  C  1  S   -0.134704   0.114209   0.000000   0.000000   0.023479
    2  C  1  S   -0.460901   0.434319   0.000000   0.000000   0.003946
    3  C  1  X    0.000000   0.000000   0.000000  -0.394389   0.000000
    4  C  1  Y    0.000000   0.000000  -0.394389   0.000000   0.000000
    5  C  1  Z   -0.874192  -1.027120   0.000000   0.000000   0.190011
    6  C  1  S    1.323026  -1.020481   0.000000   0.000000  -0.772029
    7  C  1  X    0.000000   0.000000   0.000000   0.749774   0.000000
    8  C  1  Y    0.000000   0.000000   0.749773   0.000000   0.000000
    9  C  1  Z    1.217501   2.161758   0.000000   0.000000  -1.765923
   10  C  1  S    3.169564  -2.130900   0.000000   0.000000  -1.502053
   11  C  1  X    0.000000   0.000000   0.000000  -0.163225   0.000000
   12  C  1  Y    0.000000   0.000000  -0.163225   0.000000   0.000000
   13  C  1  Z    0.208352  -0.754431   0.000000   0.000000  -0.731608
   14  C  1  S    0.073125  -0.482671   0.000000   0.000000   0.047389
   15  C  1  X    0.000000   0.000000   0.000000  -0.014352   0.000000
   16  C  1  Y    0.000000   0.000000  -0.014352   0.000000   0.000000
   17  C  1  Z    0.215783  -0.068669   0.000000   0.000000   0.002610
   18  C  1 XX   -1.282851   0.942626   0.000000   0.000000   0.080918
   19  C  1 YY   -1.282851   0.942626   0.000000   0.000000   0.080918
   20  C  1 ZZ   -0.780881   2.086929   0.000000   0.000000  -1.254074
   21  C  1 XY    0.000000   0.000000   0.000000   0.000000   0.000000
   22  C  1 XZ    0.000000   0.000000   0.000000   0.587197   0.000000
   23  C  1 YZ    0.000000   0.000000   0.587197   0.000000   0.000000
   24  O  2  S    0.010614   0.017309   0.000000   0.000000  -0.015173
   25  O  2  S    0.014327   0.008552   0.000000   0.000000  -0.031636
   26  O  2  X    0.000000   0.000000   0.000000  -0.027151   0.000000
   27  O  2  Y    0.000000   0.000000  -0.027151   0.000000   0.000000
   28  O  2  Z    0.016237   0.016450   0.000000   0.000000  -0.332821
   29  O  2  S   -0.171742  -0.386875   0.000000   0.000000   0.042311
   30  O  2  X    0.000000   0.000000   0.000000   0.008006   0.000000
   31  O  2  Y    0.000000   0.000000   0.008006   0.000000   0.000000
   32  O  2  Z    0.206054   0.860805   0.000000   0.000000  -0.257389
   33  O  2  S   -0.514736  -0.912437   0.000000   0.000000   2.755765
   34  O  2  X    0.000000   0.000000   0.000000  -0.460496   0.000000
   35  O  2  Y    0.000000   0.000000  -0.460496   0.000000   0.000000
   36  O  2  Z    0.259485   0.500102   0.000000   0.000000  -1.864552
   37  O  2  S   -1.493521   1.850373   0.000000   0.000000   0.267243
   38  O  2  X    0.000000   0.000000   0.000000   0.192767   0.000000
   39  O  2  Y    0.000000   0.000000   0.192767   0.000000   0.000000
   40  O  2  Z    0.616652  -0.781553   0.000000   0.000000   0.176635
   41  O  2 XX   -0.056473  -0.133246   0.000000   0.000000  -0.633395
   42  O  2 YY   -0.056473  -0.133246   0.000000   0.000000  -0.633395
   43  O  2 ZZ    0.025062  -0.136978   0.000000   0.000000   1.252609
   44  O  2 XY    0.000000   0.000000   0.000000   0.000000   0.000000
   45  O  2 XZ    0.000000   0.000000   0.000000   1.071596   0.000000
   46  O  2 YZ    0.000000   0.000000   1.071596   0.000000   0.000000

                     41         42         43         44         45
                    4.8986     4.8986     5.4810     6.3305    26.3219
                     A          A          A          A          A   
    1  C  1  S    0.000000   0.000000   0.020197  -0.028241  -2.111365
    2  C  1  S    0.000000   0.000000   0.010157  -0.022282   2.567902
    3  C  1  X    0.000000   0.033462   0.000000   0.000000   0.000000
    4  C  1  Y    0.033462   0.000000   0.000000   0.000000   0.000000
    5  C  1  Z    0.000000   0.000000   0.047168  -0.039190  -0.034119
    6  C  1  S    0.000000   0.000000  -0.422404   0.224606  -1.082606
    7  C  1  X    0.000000  -0.069326   0.000000   0.000000   0.000000
    8  C  1  Y   -0.069326   0.000000   0.000000   0.000000   0.000000
    9  C  1  Z    0.000000   0.000000  -1.188367   0.989654   0.085272
   10  C  1  S    0.000000   0.000000   0.085484  -0.088323  -1.119878
   11  C  1  X    0.000000   0.122396   0.000000   0.000000   0.000000
   12  C  1  Y    0.122396   0.000000   0.000000   0.000000   0.000000
   13  C  1  Z    0.000000   0.000000  -0.035447  -0.206607  -0.209024
   14  C  1  S    0.000000   0.000000   0.540253   0.261946  -0.117198
   15  C  1  X    0.000000  -0.199564   0.000000   0.000000   0.000000
   16  C  1  Y   -0.199564   0.000000   0.000000   0.000000   0.000000
   17  C  1  Z    0.000000   0.000000   0.281849   0.178406  -0.057868
   18  C  1 XX    0.000000   0.000000   0.090605  -0.139614   0.642286
   19  C  1 YY    0.000000   0.000000   0.090605  -0.139614   0.642286
   20  C  1 ZZ    0.000000   0.000000  -0.965689   0.890523   0.651923
   21  C  1 XY    0.000000   0.000000   0.000000   0.000000   0.000000
   22  C  1 XZ    0.000000  -0.104563   0.000000   0.000000   0.000000
   23  C  1 YZ   -0.104563   0.000000   0.000000   0.000000   0.000000
   24  O  2  S    0.000000   0.000000  -0.076519  -0.172890   0.009575
   25  O  2  S    0.000000   0.000000  -0.256602  -0.639558   0.001511
   26  O  2  X    0.000000  -1.277473   0.000000   0.000000   0.000000
   27  O  2  Y   -1.277473   0.000000   0.000000   0.000000   0.000000
   28  O  2  Z    0.000000   0.000000   1.192066  -0.527508   0.025797
   29  O  2  S    0.000000   0.000000   0.988527   2.188813  -0.071817
   30  O  2  X    0.000000   1.568712   0.000000   0.000000   0.000000
   31  O  2  Y    1.568712   0.000000   0.000000   0.000000   0.000000
   32  O  2  Z    0.000000   0.000000  -2.024346   1.203346   0.005609
   33  O  2  S    0.000000   0.000000   2.030880   0.954200  -0.018720
   34  O  2  X    0.000000  -0.923198   0.000000   0.000000   0.000000
   35  O  2  Y   -0.923198   0.000000   0.000000   0.000000   0.000000
   36  O  2  Z    0.000000   0.000000   0.179030  -0.059839   0.036554
   37  O  2  S    0.000000   0.000000  -1.371446  -0.613915   0.693495
   38  O  2  X    0.000000   0.445857   0.000000   0.000000   0.000000
   39  O  2  Y    0.445857   0.000000   0.000000   0.000000   0.000000
   40  O  2  Z    0.000000   0.000000   0.029775   0.006875  -0.296618
   41  O  2 XX    0.000000   0.000000  -0.747177  -1.384014   0.007638
   42  O  2 YY    0.000000   0.000000  -0.747177  -1.384014   0.007638
   43  O  2 ZZ    0.000000   0.000000  -0.009728  -1.921939   0.058977
   44  O  2 XY    0.000000   0.000000   0.000000   0.000000   0.000000
   45  O  2 XZ    0.000000  -0.040327   0.000000   0.000000   0.000000
   46  O  2 YZ   -0.040327   0.000000   0.000000   0.000000   0.000000

                     46
                   55.2302
                     A   
    1  C  1  S   -0.015006
    2  C  1  S    0.025823
    3  C  1  X    0.000000
    4  C  1  Y    0.000000
    5  C  1  Z    0.004009
    6  C  1  S   -0.016465
    7  C  1  X    0.000000
    8  C  1  Y    0.000000
    9  C  1  Z   -0.114284
   10  C  1  S    0.042965
   11  C  1  X    0.000000
   12  C  1  Y    0.000000
   13  C  1  Z    0.071062
   14  C  1  S   -0.117996
   15  C  1  X    0.000000
   16  C  1  Y    0.000000
   17  C  1  Z   -0.074247
   18  C  1 XX    0.025576
   19  C  1 YY    0.025576
   20  C  1 ZZ   -0.110391
   21  C  1 XY    0.000000
   22  C  1 XZ    0.000000
   23  C  1 YZ    0.000000
   24  O  2  S   -2.322445
   25  O  2  S    2.717951
   26  O  2  X    0.000000
   27  O  2  Y    0.000000
   28  O  2  Z    0.026333
   29  O  2  S   -1.089095
   30  O  2  X    0.000000
   31  O  2  Y    0.000000
   32  O  2  Z   -0.108373
   33  O  2  S   -0.459156
   34  O  2  X    0.000000
   35  O  2  Y    0.000000
   36  O  2  Z    0.021487
   37  O  2  S    0.275343
   38  O  2  X    0.000000
   39  O  2  Y    0.000000
   40  O  2  Z   -0.003351
   41  O  2 XX    0.569218
   42  O  2 YY    0.569218
   43  O  2 ZZ    0.620626
   44  O  2 XY    0.000000
   45  O  2 XZ    0.000000
   46  O  2 YZ    0.000000
 ...... END OF RHF CALCULATION ......
 STEP CPU TIME =    36.12 TOTAL CPU TIME =       37.1 (    0.6 MIN)
 TOTAL WALL CLOCK TIME=       40.0 SECONDS, CPU UTILIZATION IS  92.75%

     ---------------------------------------------------------------------
     PROPERTIES FOR THE B3LYP    DFT FUNCTIONAL (RHF  TYPE) DENSITY MATRIX
     ---------------------------------------------------------------------

          -----------------
          ENERGY COMPONENTS
          -----------------

         WAVEFUNCTION NORMALIZATION =       1.0000000000

                ONE ELECTRON ENERGY =    -196.7767040719
                TWO ELECTRON ENERGY =      61.7722950210
           NUCLEAR REPULSION ENERGY =      21.7098358663
                                      ------------------
                       TOTAL ENERGY =    -113.2945731846

 ELECTRON-ELECTRON POTENTIAL ENERGY =      61.7722950210
  NUCLEUS-ELECTRON POTENTIAL ENERGY =    -309.4661232810
   NUCLEUS-NUCLEUS POTENTIAL ENERGY =      21.7098358663
                                      ------------------
             TOTAL POTENTIAL ENERGY =    -225.9839923937
               TOTAL KINETIC ENERGY =     112.6894192091
                 VIRIAL RATIO (V/T) =       2.0053701047

  ...... PI ENERGY ANALYSIS ......

 ENERGY ANALYSIS:
            FOCK ENERGY=    -65.2263371182
          BARE H ENERGY=   -196.7767040719
     ELECTRONIC ENERGY =   -131.0015205950
         KINETIC ENERGY=    112.6894192091
          N-N REPULSION=     21.7098358663
           TOTAL ENERGY=   -109.2916847288
        SIGMA PART(1+2)=   -113.2001463742
               (K,V1,2)=    104.4928559368   -267.5447951983     49.8517928873
           PI PART(1+2)=    -17.8013742209
               (K,V1,2)=      8.1965632723    -41.9213280827     15.9233905895
  SIGMA SKELETON, ERROR=    -91.4903105079      0.0000000000
             MIXED PART= 0.00000E+00 0.00000E+00 0.00000E+00 0.00000E+00
 ...... END OF PI ENERGY ANALYSIS ......

          ---------------------------------------
          MULLIKEN AND LOWDIN POPULATION ANALYSES
          ---------------------------------------

     MULLIKEN ATOMIC POPULATION IN EACH MOLECULAR ORBITAL

                      1          2          3          4          5

                  2.000000   2.000000   2.000000   2.000000   2.000000

    1             0.000208   2.001309   0.574077   0.500218   0.545162
    2             1.999792  -0.001309   1.425923   1.499782   1.454838

                      6          7

                  2.000000   2.000000

    1             0.545162   1.806718
    2             1.454838   0.193282

               ----- POPULATIONS IN EACH AO -----
                             MULLIKEN      LOWDIN
              1  C  1  S      1.10606     1.05111
              2  C  1  S      0.87644     0.91020
              3  C  1  X      0.10887     0.10645
              4  C  1  Y      0.10887     0.10645
              5  C  1  Z      0.29156     0.28888
              6  C  1  S      0.96933     0.54536
              7  C  1  X      0.26658     0.24963
              8  C  1  Y      0.26658     0.24963
              9  C  1  Z      0.51061     0.54633
             10  C  1  S      0.92559     0.38971
             11  C  1  X      0.13403     0.15520
             12  C  1  Y      0.13403     0.15520
             13  C  1  Z      0.09315     0.25376
             14  C  1  S      0.08776     0.14015
             15  C  1  X      0.00409     0.01661
             16  C  1  Y      0.00409     0.01661
             17  C  1  Z      0.01041     0.02614
             18  C  1 XX     -0.00369     0.17467
             19  C  1 YY     -0.00369     0.17467
             20  C  1 ZZ      0.01900     0.22575
             21  C  1 XY      0.00000     0.00000
             22  C  1 XZ      0.03160     0.04915
             23  C  1 YZ      0.03160     0.04915
             24  O  2  S      1.08483     1.03257
             25  O  2  S      0.90245     0.93039
             26  O  2  X      0.30306     0.30407
             27  O  2  Y      0.30306     0.30407
             28  O  2  Z      0.34736     0.34377
             29  O  2  S      1.06242     0.58551
             30  O  2  X      0.63616     0.60070
             31  O  2  Y      0.63616     0.60070
             32  O  2  Z      0.70692     0.68964
             33  O  2  S      0.82302     0.40194
             34  O  2  X      0.48806     0.43141
             35  O  2  Y      0.48806     0.43141
             36  O  2  Z      0.28053     0.39613
             37  O  2  S     -0.05120     0.17044
             38  O  2  X      0.02267     0.08225
             39  O  2  Y      0.02267     0.08225
             40  O  2  Z     -0.02983     0.12408
             41  O  2 XX     -0.01039     0.19406
             42  O  2 YY     -0.01039     0.19406
             43  O  2 ZZ      0.01177     0.21068
             44  O  2 XY      0.00000     0.00000
             45  O  2 XZ      0.00488     0.00453
             46  O  2 YZ      0.00488     0.00453

          ----- MULLIKEN ATOMIC OVERLAP POPULATIONS -----
          (OFF-DIAGONAL ELEMENTS NEED TO BE MULTIPLIED BY 2)

             1           2

    1    5.5941672
    2    0.3786871   7.6484587

          TOTAL MULLIKEN AND LOWDIN ATOMIC POPULATIONS
       ATOM         MULL.POP.    CHARGE          LOW.POP.     CHARGE
    1 C             5.972854    0.027146         5.880796    0.119204
    2 O             8.027146   -0.027146         8.119204   -0.119204

          -------------------------------
          BOND ORDER AND VALENCE ANALYSIS     BOND ORDER THRESHOLD=0.050
          -------------------------------

                   BOND                       BOND                       BOND
  ATOM PAIR DIST  ORDER      ATOM PAIR DIST  ORDER      ATOM PAIR DIST  ORDER
    1   2  1.170  2.217

                       TOTAL       BONDED        FREE
      ATOM            VALENCE     VALENCE     VALENCE
    1 C                 2.217       2.217       0.000
    2 O                 2.217       2.217       0.000

          ---------------------
          ELECTROSTATIC MOMENTS
          ---------------------

 POINT   1           X           Y           Z (BOHR)    CHARGE
                 0.000000    0.000000    0.000000        0.00 (A.U.)
         DX          DY          DZ         /D/  (DEBYE)
     0.000000    0.000000   -0.090482    0.090482
 ...... END OF PROPERTY EVALUATION ......
 STEP CPU TIME =     0.05 TOTAL CPU TIME =       37.1 (    0.6 MIN)
 TOTAL WALL CLOCK TIME=       40.0 SECONDS, CPU UTILIZATION IS  92.87%

 BEGINNING ONE ELECTRON GRADIENT...
 ..... END OF 1-ELECTRON GRADIENT ......
 STEP CPU TIME =     0.04 TOTAL CPU TIME =       37.2 (    0.6 MIN)
 TOTAL WALL CLOCK TIME=       40.0 SECONDS, CPU UTILIZATION IS  92.98%

          ----------------------
          GRADIENT OF THE ENERGY
          ----------------------
 MEMORY FOR GRID POINT CONTRIBUTIONS TO THE DFT GRADIENT=    114361 WORDS.
 STEP CPU TIME =     4.72 TOTAL CPU TIME =       41.9 (    0.7 MIN)
 TOTAL WALL CLOCK TIME=       46.0 SECONDS, CPU UTILIZATION IS  91.11%

 THE MINIMUM MEMORY REQUIRED FOR THIS RUN IS      74571 WORDS.
 USING     986451 WORDS FOR 2E- DERIVATIVE INTEGRAL CONTRIBUTIONS.
 THE COARSE/FINE SCHWARZ SCREENINGS SKIPPED          0/         0 BLOCKS.
 THE NUMBER OF GRADIENT INTEGRAL BLOCKS COMPUTED WAS      2619
 ...... END OF 2-ELECTRON GRADIENT ......
 STEP CPU TIME =     1.22 TOTAL CPU TIME =       43.1 (    0.7 MIN)
 TOTAL WALL CLOCK TIME=       48.0 SECONDS, CPU UTILIZATION IS  89.85%

          NSERCH=  0     ENERGY=    -113.2945732

                                 -----------------------
                                 GRADIENT (HARTREE/BOHR)
                                 -----------------------
        ATOM     ZNUC       DE/DX         DE/DY         DE/DZ
 --------------------------------------------------------------
  1  C            6.0     0.0000000     0.0000000    -0.0884480
  2  O            8.0     0.0000000     0.0000000     0.0884480

          MAXIMUM GRADIENT =  0.0884480    RMS GRADIENT = 0.0510655
          FORCE CONSTANT MATRIX NOT UPDATED --- TAKING FIRST STEP
          MIN SEARCH, CORRECT HESSIAN, TRYING PURE NR STEP
               NR STEP HAS LENGTH         =   0.104771
          RADIUS OF STEP TAKEN=   0.10477  CURRENT TRUST RADIUS=   0.30000

 BEGINNING GEOMETRY SEARCH POINT NSERCH=   1 ...

 COORDINATES OF ALL ATOMS ARE (ANGS)
   ATOM   CHARGE       X              Y              Z
 ------------------------------------------------------------
 C           6.0   0.0000000000   0.0000000000  -0.6292766218
 O           8.0   0.0000000000   0.0000000000   0.4623161029

 THE CURRENT FULLY SUBSTITUTED Z-MATRIX IS
 C   
 O      1   1.0915927

          INTERNUCLEAR DISTANCES (ANGS.)
          ------------------------------

                1 C          2 O     

   1 C       0.0000000    1.0915927 *
   2 O       1.0915927 *  0.0000000  

  * ... LESS THAN  3.000

 ...... END OF ONE-ELECTRON INTEGRALS ......
 STEP CPU TIME =     0.01 TOTAL CPU TIME =       43.1 (    0.7 MIN)
 TOTAL WALL CLOCK TIME=       48.0 SECONDS, CPU UTILIZATION IS  89.87%
 TOTAL NUMBER OF NONZERO TWO-ELECTRON INTEGRALS =              154255
         11 INTEGRAL RECORDS WERE STORED ON DISK FILE  8.
  ...... END OF TWO-ELECTRON INTEGRALS .....
 STEP CPU TIME =     0.43 TOTAL CPU TIME =       43.6 (    0.7 MIN)
 TOTAL WALL CLOCK TIME=       48.0 SECONDS, CPU UTILIZATION IS  90.77%

          --------------------------
             R-B3LYP SCF CALCULATION
          --------------------------
         DENSITY MATRIX CONVERGENCE THRESHOLD=  2.00E-04
     COARSE -> FINE DFT GRID SWITCH THRESHOLD=  6.00E-03 (SWITCH IN $DFT)
                   HF -> DFT SWITCH THRESHOLD=  5.00E-03 (SWOFF IN $DFT)

 DFT CODE IS SWITCHING FROM THE FINE GRID NRAD= 96,  NLEB=  302
                      TO THE COARSE GRID NRAD0= 24, NLEB0=  110

 ITER EX DEM     TOTAL ENERGY        E CHANGE  DENSITY CHANGE    DIIS ERROR
          * * *   INITIATING DIIS PROCEDURE   * * *
   1  0  0     -113.2899277854  -113.2899277854   0.033052012   0.055931726
   2  1  0     -113.2933726846    -0.0034448991   0.026783056   0.023635696
   3  2  0     -113.2936386291    -0.0002659446   0.009615330   0.028823963
   4  3  0     -113.2943509390    -0.0007123098   0.005417933   0.010113052
 DFT CODE IS SWITCHING BACK TO THE FINE GRID
          * * *   INITIATING DIIS PROCEDURE   * * *
   5  4  0     -113.2952595882    -0.0009086492   0.002006442   0.002770641
   6  5  0     -113.2952643118    -0.0000047236   0.000277445   0.000160361
   7  6  0     -113.2952643357    -0.0000000239   0.000094366   0.000124515
   8  7  0     -113.2952643334     0.0000000023   0.000037022   0.000138544

          -----------------
          DENSITY CONVERGED
          -----------------
     TIME TO FORM FOCK OPERATORS=      20.7 SECONDS (       2.6 SEC/ITER)
     TIME TO SOLVE SCF EQUATIONS=       0.1 SECONDS (       0.0 SEC/ITER)

 FINAL R-B3LYP ENERGY IS     -113.2952643334 AFTER   8 ITERATIONS
 DFT EXCHANGE + CORRELATION ENERGY =       -11.2119635384
 TOTAL ELECTRON NUMBER             =        13.9999996139
 ...... END OF RHF CALCULATION ......
 STEP CPU TIME =    20.97 TOTAL CPU TIME =       64.5 (    1.1 MIN)
 TOTAL WALL CLOCK TIME=       70.0 SECONDS, CPU UTILIZATION IS  92.20%
 ..... END OF 1-ELECTRON GRADIENT ......
 STEP CPU TIME =     0.03 TOTAL CPU TIME =       64.6 (    1.1 MIN)
 TOTAL WALL CLOCK TIME=       70.0 SECONDS, CPU UTILIZATION IS  92.24%
 MEMORY FOR GRID POINT CONTRIBUTIONS TO THE DFT GRADIENT=    114361 WORDS.
 STEP CPU TIME =     4.74 TOTAL CPU TIME =       69.3 (    1.2 MIN)
 TOTAL WALL CLOCK TIME=       76.0 SECONDS, CPU UTILIZATION IS  91.20%
 ...... END OF 2-ELECTRON GRADIENT ......
 STEP CPU TIME =     1.22 TOTAL CPU TIME =       70.5 (    1.2 MIN)
 TOTAL WALL CLOCK TIME=       78.0 SECONDS, CPU UTILIZATION IS  90.42%

          NSERCH=  1     ENERGY=    -113.2952643

                                 -----------------------
                                 GRADIENT (HARTREE/BOHR)
                                 -----------------------
        ATOM     ZNUC       DE/DX         DE/DY         DE/DZ
 --------------------------------------------------------------
  1  C            6.0     0.0000000     0.0000000     0.0961679
  2  O            8.0     0.0000000     0.0000000    -0.0961679

          MAXIMUM GRADIENT =  0.0961679    RMS GRADIENT = 0.0555226
          HESSIAN UPDATED USING THE BFGS FORMULA
             ACTUAL ENERGY CHANGE WAS  -0.0006911488
          PREDICTED ENERGY CHANGE WAS  -0.0065525950 RATIO=  0.105
          MIN SEARCH, CORRECT HESSIAN, TRYING PURE NR STEP
               NR STEP HAS LENGTH         =   0.054576
          RADIUS OF STEP TAKEN=   0.05458  CURRENT TRUST RADIUS=   0.10477

 BEGINNING GEOMETRY SEARCH POINT NSERCH=   2 ...

 COORDINATES OF ALL ATOMS ARE (ANGS)
   ATOM   CHARGE       X              Y              Z
 ------------------------------------------------------------
 C           6.0   0.0000000000   0.0000000000  -0.6496981115
 O           8.0   0.0000000000   0.0000000000   0.4827375926

 THE CURRENT FULLY SUBSTITUTED Z-MATRIX IS
 C   
 O      1   1.1324357

          INTERNUCLEAR DISTANCES (ANGS.)
          ------------------------------

                1 C          2 O     

   1 C       0.0000000    1.1324357 *
   2 O       1.1324357 *  0.0000000  

  * ... LESS THAN  3.000

 ...... END OF ONE-ELECTRON INTEGRALS ......
 STEP CPU TIME =     0.01 TOTAL CPU TIME =       70.5 (    1.2 MIN)
 TOTAL WALL CLOCK TIME=       78.0 SECONDS, CPU UTILIZATION IS  90.44%
 TOTAL NUMBER OF NONZERO TWO-ELECTRON INTEGRALS =              154251
         11 INTEGRAL RECORDS WERE STORED ON DISK FILE  8.
  ...... END OF TWO-ELECTRON INTEGRALS .....
 STEP CPU TIME =     0.42 TOTAL CPU TIME =       71.0 (    1.2 MIN)
 TOTAL WALL CLOCK TIME=       78.0 SECONDS, CPU UTILIZATION IS  90.97%

          --------------------------
             R-B3LYP SCF CALCULATION
          --------------------------
         DENSITY MATRIX CONVERGENCE THRESHOLD=  2.00E-04
     COARSE -> FINE DFT GRID SWITCH THRESHOLD=  6.00E-03 (SWITCH IN $DFT)
                   HF -> DFT SWITCH THRESHOLD=  5.00E-03 (SWOFF IN $DFT)

 DFT CODE IS SWITCHING FROM THE FINE GRID NRAD= 96,  NLEB=  302
                      TO THE COARSE GRID NRAD0= 24, NLEB0=  110

 ITER EX DEM     TOTAL ENERGY        E CHANGE  DENSITY CHANGE    DIIS ERROR
          * * *   INITIATING DIIS PROCEDURE   * * *
   1  0  0     -113.2982369597  -113.2982369597   0.016188644   0.026498911
   2  1  0     -113.2991480445    -0.0009110848   0.015224349   0.016314231
   3  2  0     -113.2991622756    -0.0000142311   0.005651250   0.020000800
 DFT CODE IS SWITCHING BACK TO THE FINE GRID
          * * *   INITIATING DIIS PROCEDURE   * * *
   4  3  0     -113.2982513938     0.0009108818   0.006425105   0.003831996
   5  4  0     -113.2981528109     0.0000985829   0.003014307   0.012219082
   6  5  0     -113.2982850396    -0.0001322286   0.000875020   0.000722225
   7  6  0     -113.2982858473    -0.0000008078   0.000215676   0.000232298
   8  7  0     -113.2982859433    -0.0000000960   0.000016772   0.000017687
   9  8  0     -113.2982859437    -0.0000000004   0.000001411   0.000003234

          -----------------
          DENSITY CONVERGED
          -----------------
     TIME TO FORM FOCK OPERATORS=      29.5 SECONDS (       3.3 SEC/ITER)
     TIME TO SOLVE SCF EQUATIONS=       0.1 SECONDS (       0.0 SEC/ITER)

 FINAL R-B3LYP ENERGY IS     -113.2982859437 AFTER   9 ITERATIONS
 DFT EXCHANGE + CORRELATION ENERGY =       -11.1761812259
 TOTAL ELECTRON NUMBER             =        13.9999994824
 ...... END OF RHF CALCULATION ......
 STEP CPU TIME =    29.81 TOTAL CPU TIME =      100.8 (    1.7 MIN)
 TOTAL WALL CLOCK TIME=      110.0 SECONDS, CPU UTILIZATION IS  91.61%
 ..... END OF 1-ELECTRON GRADIENT ......
 STEP CPU TIME =     0.03 TOTAL CPU TIME =      100.8 (    1.7 MIN)
 TOTAL WALL CLOCK TIME=      110.0 SECONDS, CPU UTILIZATION IS  91.64%
 MEMORY FOR GRID POINT CONTRIBUTIONS TO THE DFT GRADIENT=    114361 WORDS.
 STEP CPU TIME =     4.72 TOTAL CPU TIME =      105.5 (    1.8 MIN)
 TOTAL WALL CLOCK TIME=      116.0 SECONDS, CPU UTILIZATION IS  90.97%
 ...... END OF 2-ELECTRON GRADIENT ......
 STEP CPU TIME =     1.23 TOTAL CPU TIME =      106.8 (    1.8 MIN)
 TOTAL WALL CLOCK TIME=      118.0 SECONDS, CPU UTILIZATION IS  90.47%

          NSERCH=  2     ENERGY=    -113.2982859

                                 -----------------------
                                 GRADIENT (HARTREE/BOHR)
                                 -----------------------
        ATOM     ZNUC       DE/DX         DE/DY         DE/DZ
 --------------------------------------------------------------
  1  C            6.0     0.0000000     0.0000000    -0.0127120
  2  O            8.0     0.0000000     0.0000000     0.0127120

          MAXIMUM GRADIENT =  0.0127120    RMS GRADIENT = 0.0073393
          HESSIAN UPDATED USING THE BFGS FORMULA
             ACTUAL ENERGY CHANGE WAS  -0.0030216104
          PREDICTED ENERGY CHANGE WAS  -0.0037112186 RATIO=  0.814
          MIN SEARCH, CORRECT HESSIAN, TRYING PURE NR STEP
               NR STEP HAS LENGTH         =   0.006372
          RADIUS OF STEP TAKEN=   0.00637  CURRENT TRUST RADIUS=   0.07718

 BEGINNING GEOMETRY SEARCH POINT NSERCH=   3 ...

 COORDINATES OF ALL ATOMS ARE (ANGS)
   ATOM   CHARGE       X              Y              Z
 ------------------------------------------------------------
 C           6.0   0.0000000000   0.0000000000  -0.6473138553
 O           8.0   0.0000000000   0.0000000000   0.4803533364

 THE CURRENT FULLY SUBSTITUTED Z-MATRIX IS
 C   
 O      1   1.1276672

          INTERNUCLEAR DISTANCES (ANGS.)
          ------------------------------

                1 C          2 O     

   1 C       0.0000000    1.1276672 *
   2 O       1.1276672 *  0.0000000  

  * ... LESS THAN  3.000

 ...... END OF ONE-ELECTRON INTEGRALS ......
 STEP CPU TIME =     0.00 TOTAL CPU TIME =      106.8 (    1.8 MIN)
 TOTAL WALL CLOCK TIME=      118.0 SECONDS, CPU UTILIZATION IS  90.47%
 TOTAL NUMBER OF NONZERO TWO-ELECTRON INTEGRALS =              154251
         11 INTEGRAL RECORDS WERE STORED ON DISK FILE  8.
  ...... END OF TWO-ELECTRON INTEGRALS .....
 STEP CPU TIME =     0.43 TOTAL CPU TIME =      107.2 (    1.8 MIN)
 TOTAL WALL CLOCK TIME=      118.0 SECONDS, CPU UTILIZATION IS  90.83%

          --------------------------
             R-B3LYP SCF CALCULATION
          --------------------------
         DENSITY MATRIX CONVERGENCE THRESHOLD=  5.00E-05
     COARSE -> FINE DFT GRID SWITCH THRESHOLD=  1.50E-03 (SWITCH IN $DFT)
                   HF -> DFT SWITCH THRESHOLD=  5.00E-03 (SWOFF IN $DFT)

 DFT CODE IS SWITCHING FROM THE FINE GRID NRAD= 96,  NLEB=  302
                      TO THE COARSE GRID NRAD0= 24, NLEB0=  110

 ITER EX DEM     TOTAL ENERGY        E CHANGE  DENSITY CHANGE    DIIS ERROR
          * * *   INITIATING DIIS PROCEDURE   * * *
   1  0  0     -113.2993461168  -113.2993461168   0.002789745   0.005666036
   2  1  0     -113.2993630109    -0.0000168941   0.002171316   0.002042552
   3  2  0     -113.2993598416     0.0000031693   0.000870172   0.003414748
 DFT CODE IS SWITCHING BACK TO THE FINE GRID
          * * *   INITIATING DIIS PROCEDURE   * * *
   4  3  0     -113.2983449353     0.0010149063   0.002950063   0.002555587
   5  4  0     -113.2983459265    -0.0000009911   0.001153073   0.002048649
   6  5  0     -113.2983449768     0.0000009496   0.000604678   0.002532436
   7  6  0     -113.2983504566    -0.0000054798   0.000102070   0.000069724
   8  7  0     -113.2983504672    -0.0000000105   0.000011403   0.000011058
   9  8  0     -113.2983504674    -0.0000000002   0.000000916   0.000004045

          -----------------
          DENSITY CONVERGED
          -----------------
     TIME TO FORM FOCK OPERATORS=      29.5 SECONDS (       3.3 SEC/ITER)
     TIME TO SOLVE SCF EQUATIONS=       0.1 SECONDS (       0.0 SEC/ITER)

 FINAL R-B3LYP ENERGY IS     -113.2983504674 AFTER   9 ITERATIONS
 DFT EXCHANGE + CORRELATION ENERGY =       -11.1801714658
 TOTAL ELECTRON NUMBER             =        13.9999994948
 ...... END OF RHF CALCULATION ......
 STEP CPU TIME =    29.82 TOTAL CPU TIME =      137.0 (    2.3 MIN)
 TOTAL WALL CLOCK TIME=      148.0 SECONDS, CPU UTILIZATION IS  92.57%
 ..... END OF 1-ELECTRON GRADIENT ......
 STEP CPU TIME =     0.03 TOTAL CPU TIME =      137.0 (    2.3 MIN)
 TOTAL WALL CLOCK TIME=      148.0 SECONDS, CPU UTILIZATION IS  92.59%
 MEMORY FOR GRID POINT CONTRIBUTIONS TO THE DFT GRADIENT=    114361 WORDS.
 STEP CPU TIME =     4.70 TOTAL CPU TIME =      141.7 (    2.4 MIN)
 TOTAL WALL CLOCK TIME=      154.0 SECONDS, CPU UTILIZATION IS  92.03%
 ...... END OF 2-ELECTRON GRADIENT ......
 STEP CPU TIME =     1.22 TOTAL CPU TIME =      142.9 (    2.4 MIN)
 TOTAL WALL CLOCK TIME=      154.0 SECONDS, CPU UTILIZATION IS  92.82%

          NSERCH=  3     ENERGY=    -113.2983505

                                 -----------------------
                                 GRADIENT (HARTREE/BOHR)
                                 -----------------------
        ATOM     ZNUC       DE/DX         DE/DY         DE/DZ
 --------------------------------------------------------------
  1  C            6.0     0.0000000     0.0000000    -0.0015469
  2  O            8.0     0.0000000     0.0000000     0.0015469

          MAXIMUM GRADIENT =  0.0015469    RMS GRADIENT = 0.0008931
          HESSIAN UPDATED USING THE BFGS FORMULA
             ACTUAL ENERGY CHANGE WAS  -0.0000645236
          PREDICTED ENERGY CHANGE WAS  -0.0000572750 RATIO=  1.127
          MIN SEARCH, CORRECT HESSIAN, TRYING PURE NR STEP
               NR STEP HAS LENGTH         =   0.000883
          RADIUS OF STEP TAKEN=   0.00088  CURRENT TRUST RADIUS=   0.05000

 BEGINNING GEOMETRY SEARCH POINT NSERCH=   4 ...

 COORDINATES OF ALL ATOMS ARE (ANGS)
   ATOM   CHARGE       X              Y              Z
 ------------------------------------------------------------
 C           6.0   0.0000000000   0.0000000000  -0.6469835139
 O           8.0   0.0000000000   0.0000000000   0.4800229950

 THE CURRENT FULLY SUBSTITUTED Z-MATRIX IS
 C   
 O      1   1.1270065

          INTERNUCLEAR DISTANCES (ANGS.)
          ------------------------------

                1 C          2 O     

   1 C       0.0000000    1.1270065 *
   2 O       1.1270065 *  0.0000000  

  * ... LESS THAN  3.000

 ...... END OF ONE-ELECTRON INTEGRALS ......
 STEP CPU TIME =     0.01 TOTAL CPU TIME =      143.0 (    2.4 MIN)
 TOTAL WALL CLOCK TIME=      154.0 SECONDS, CPU UTILIZATION IS  92.83%
 TOTAL NUMBER OF NONZERO TWO-ELECTRON INTEGRALS =              154251
         11 INTEGRAL RECORDS WERE STORED ON DISK FILE  8.
  ...... END OF TWO-ELECTRON INTEGRALS .....
 STEP CPU TIME =     0.43 TOTAL CPU TIME =      143.4 (    2.4 MIN)
 TOTAL WALL CLOCK TIME=      154.0 SECONDS, CPU UTILIZATION IS  93.11%

          --------------------------
             R-B3LYP SCF CALCULATION
          --------------------------
         DENSITY MATRIX CONVERGENCE THRESHOLD=  1.00E-05
     COARSE -> FINE DFT GRID SWITCH THRESHOLD=  3.00E-04 (SWITCH IN $DFT)
                   HF -> DFT SWITCH THRESHOLD=  5.00E-03 (SWOFF IN $DFT)

 DFT CODE IS SWITCHING FROM THE FINE GRID NRAD= 96,  NLEB=  302
                      TO THE COARSE GRID NRAD0= 24, NLEB0=  110

 ITER EX DEM     TOTAL ENERGY        E CHANGE  DENSITY CHANGE    DIIS ERROR
          * * *   INITIATING DIIS PROCEDURE   * * *
   1  0  0     -113.2993343446  -113.2993343446   0.002444080   0.002823855
   2  1  0     -113.2993388329    -0.0000044883   0.000764591   0.000825561
   3  2  0     -113.2993368328     0.0000020002   0.000445734   0.001818622
   4  3  0     -113.2993396972    -0.0000028645   0.000087375   0.000090464
 DFT CODE IS SWITCHING BACK TO THE FINE GRID
          * * *   INITIATING DIIS PROCEDURE   * * *
   5  4  0     -113.2983466879     0.0009930093   0.002373234   0.002365471
   6  5  0     -113.2983509592    -0.0000042713   0.000488417   0.000560468
   7  6  0     -113.2983495723     0.0000013869   0.000343938   0.001456743
   8  7  0     -113.2983514125    -0.0000018401   0.000010861   0.000033523
   9  8  0     -113.2983514142    -0.0000000017   0.000002705   0.000009711
  10  9  0     -113.2983514142    -0.0000000001   0.000000367   0.000000773

          -----------------
          DENSITY CONVERGED
          -----------------
     TIME TO FORM FOCK OPERATORS=      30.0 SECONDS (       3.0 SEC/ITER)
     TIME TO SOLVE SCF EQUATIONS=       0.1 SECONDS (       0.0 SEC/ITER)

 FINAL R-B3LYP ENERGY IS     -113.2983514142 AFTER  10 ITERATIONS
 DFT EXCHANGE + CORRELATION ENERGY =       -11.1807270792
 TOTAL ELECTRON NUMBER             =        13.9999994963
 ...... END OF RHF CALCULATION ......
 STEP CPU TIME =    30.33 TOTAL CPU TIME =      173.7 (    2.9 MIN)
 TOTAL WALL CLOCK TIME=      188.0 SECONDS, CPU UTILIZATION IS  92.40%
 ..... END OF 1-ELECTRON GRADIENT ......
 STEP CPU TIME =     0.04 TOTAL CPU TIME =      173.8 (    2.9 MIN)
 TOTAL WALL CLOCK TIME=      188.0 SECONDS, CPU UTILIZATION IS  92.43%
 MEMORY FOR GRID POINT CONTRIBUTIONS TO THE DFT GRADIENT=    114361 WORDS.
 STEP CPU TIME =     4.69 TOTAL CPU TIME =      178.5 (    3.0 MIN)
 TOTAL WALL CLOCK TIME=      194.0 SECONDS, CPU UTILIZATION IS  91.98%
 ...... END OF 2-ELECTRON GRADIENT ......
 STEP CPU TIME =     1.23 TOTAL CPU TIME =      179.7 (    3.0 MIN)
 TOTAL WALL CLOCK TIME=      194.0 SECONDS, CPU UTILIZATION IS  92.62%

          NSERCH=  4     ENERGY=    -113.2983514

                                 -----------------------
                                 GRADIENT (HARTREE/BOHR)
                                 -----------------------
        ATOM     ZNUC       DE/DX         DE/DY         DE/DZ
 --------------------------------------------------------------
  1  C            6.0     0.0000000     0.0000000     0.0000299
  2  O            8.0     0.0000000     0.0000000    -0.0000299

          MAXIMUM GRADIENT =  0.0000299    RMS GRADIENT = 0.0000173

      ***** EQUILIBRIUM GEOMETRY LOCATED *****
 COORDINATES OF ALL ATOMS ARE (ANGS)
   ATOM   CHARGE       X              Y              Z
 ------------------------------------------------------------
 C           6.0   0.0000000000   0.0000000000  -0.6469835139
 O           8.0   0.0000000000   0.0000000000   0.4800229950

 THE CURRENT FULLY SUBSTITUTED Z-MATRIX IS
 C   
 O      1   1.1270065

          INTERNUCLEAR DISTANCES (ANGS.)
          ------------------------------

                1 C          2 O     

   1 C       0.0000000    1.1270065 *
   2 O       1.1270065 *  0.0000000  

  * ... LESS THAN  3.000


          NUCLEAR ENERGY    =       22.5380312925
          ELECTRONIC ENERGY =     -135.8363827068
          TOTAL ENERGY      =     -113.2983514142

          ------------------
          MOLECULAR ORBITALS
          ------------------

                      1          2          3          4          5
                  -19.2387   -10.2958    -1.1756    -0.5832    -0.4837
                     A          A          A          A          A   
    1  C  1  S    0.000036  -0.563386  -0.065004   0.074259   0.000000
    2  C  1  S   -0.000099  -0.459951  -0.099327   0.117591   0.000000
    3  C  1  X    0.000000   0.000000   0.000000   0.000000   0.000000
    4  C  1  Y    0.000000   0.000000   0.000000   0.000000   0.148802
    5  C  1  Z    0.000038  -0.002928   0.111096  -0.060943   0.000000
    6  C  1  S    0.000234  -0.021458   0.248690  -0.347116   0.000000
    7  C  1  X    0.000000   0.000000   0.000000   0.000000   0.000000
    8  C  1  Y    0.000000   0.000000   0.000000   0.000000   0.222632
    9  C  1  Z    0.000803   0.002023   0.118308  -0.079753   0.000000
   10  C  1  S   -0.000389  -0.010603   0.071619  -0.262820   0.000000
   11  C  1  X    0.000000   0.000000   0.000000   0.000000   0.000000
   12  C  1  Y    0.000000   0.000000   0.000000   0.000000   0.109166
   13  C  1  Z   -0.000386  -0.002485   0.006598  -0.029902   0.000000
   14  C  1  S    0.000328  -0.001462   0.021951  -0.003349   0.000000
   15  C  1  X    0.000000   0.000000   0.000000   0.000000   0.000000
   16  C  1  Y    0.000000   0.000000   0.000000   0.000000   0.006492
   17  C  1  Z    0.000240  -0.000441   0.012477   0.006418   0.000000
   18  C  1 XX   -0.000163   0.008206  -0.023504   0.009808   0.000000
   19  C  1 YY   -0.000163   0.008206  -0.023504   0.009808   0.000000
   20  C  1 ZZ    0.000737   0.008097   0.020874  -0.006979   0.000000
   21  C  1 XY    0.000000   0.000000   0.000000   0.000000   0.000000
   22  C  1 XZ    0.000000   0.000000   0.000000   0.000000   0.000000
   23  C  1 YZ    0.000000   0.000000   0.000000   0.000000   0.052298
   24  O  2  S    0.551706   0.000209  -0.110758  -0.063238   0.000000
   25  O  2  S    0.466322   0.000289  -0.177835  -0.104515   0.000000
   26  O  2  X    0.000000   0.000000   0.000000   0.000000   0.000000
   27  O  2  Y    0.000000   0.000000   0.000000   0.000000   0.260979
   28  O  2  Z   -0.001431   0.000295  -0.087270   0.234131   0.000000
   29  O  2  S    0.020926  -0.001000   0.512030   0.318418   0.000000
   30  O  2  X    0.000000   0.000000   0.000000   0.000000   0.000000
   31  O  2  Y    0.000000   0.000000   0.000000   0.000000   0.382808
   32  O  2  Z    0.001005   0.000864  -0.126696   0.328964   0.000000
   33  O  2  S    0.001325  -0.000214   0.323823   0.425276   0.000000
   34  O  2  X    0.000000   0.000000   0.000000   0.000000   0.000000
   35  O  2  Y    0.000000   0.000000   0.000000   0.000000   0.297698
   36  O  2  Z   -0.000266   0.000500  -0.035686   0.182765   0.000000
   37  O  2  S   -0.000656   0.007125  -0.059800   0.082950   0.000000
   38  O  2  X    0.000000   0.000000   0.000000   0.000000   0.000000
   39  O  2  Y    0.000000   0.000000   0.000000   0.000000   0.019612
   40  O  2  Z   -0.000022  -0.002966   0.010560  -0.006725   0.000000
   41  O  2 XX   -0.006049   0.000065  -0.011735   0.006069   0.000000
   42  O  2 YY   -0.006049   0.000065  -0.011735   0.006069   0.000000
   43  O  2 ZZ   -0.006130  -0.000062   0.019382  -0.025507   0.000000
   44  O  2 XY    0.000000   0.000000   0.000000   0.000000   0.000000
   45  O  2 XZ    0.000000   0.000000   0.000000   0.000000   0.000000
   46  O  2 YZ    0.000000   0.000000   0.000000   0.000000  -0.025381

                      6          7          8          9         10
                   -0.4837    -0.3841    -0.0390    -0.0390     0.0295
                     A          A          A          A          A   
    1  C  1  S    0.000000  -0.077743   0.000000   0.000000   0.021833
    2  C  1  S    0.000000  -0.124381   0.000000   0.000000   0.034446
    3  C  1  X    0.148802   0.000000   0.000000   0.231860   0.000000
    4  C  1  Y    0.000000   0.000000   0.231860   0.000000   0.000000
    5  C  1  Z    0.000000  -0.212044   0.000000   0.000000   0.057603
    6  C  1  S    0.000000   0.358525   0.000000   0.000000  -0.166081
    7  C  1  X    0.222632   0.000000   0.000000   0.360955   0.000000
    8  C  1  Y    0.000000   0.000000   0.360955   0.000000   0.000000
    9  C  1  Z    0.000000  -0.272007   0.000000   0.000000   0.048317
   10  C  1  S    0.000000   0.531865   0.000000   0.000000   0.389972
   11  C  1  X    0.109166   0.000000   0.000000   0.554342   0.000000
   12  C  1  Y    0.000000   0.000000   0.554342   0.000000   0.000000
   13  C  1  Z    0.000000  -0.130986   0.000000   0.000000   0.470148
   14  C  1  S    0.000000   0.068508   0.000000   0.000000   2.277792
   15  C  1  X    0.006492   0.000000   0.000000   0.349654   0.000000
   16  C  1  Y    0.000000   0.000000   0.349654   0.000000   0.000000
   17  C  1  Z    0.000000  -0.004977   0.000000   0.000000   0.742458
   18  C  1 XX    0.000000   0.020027   0.000000   0.000000  -0.007229
   19  C  1 YY    0.000000   0.020027   0.000000   0.000000  -0.007229
   20  C  1 ZZ    0.000000  -0.022936   0.000000   0.000000  -0.017503
   21  C  1 XY    0.000000   0.000000   0.000000   0.000000   0.000000
   22  C  1 XZ    0.052298   0.000000   0.000000  -0.016436   0.000000
   23  C  1 YZ    0.000000   0.000000  -0.016436   0.000000   0.000000
   24  O  2  S    0.000000   0.008338   0.000000   0.000000   0.020051
   25  O  2  S    0.000000   0.013800   0.000000   0.000000   0.032859
   26  O  2  X    0.260979   0.000000   0.000000  -0.181626   0.000000
   27  O  2  Y    0.000000   0.000000  -0.181626   0.000000   0.000000
   28  O  2  Z    0.000000   0.129384   0.000000   0.000000  -0.030817
   29  O  2  S    0.000000  -0.046707   0.000000   0.000000  -0.125868
   30  O  2  X    0.382808   0.000000   0.000000  -0.269679   0.000000
   31  O  2  Y    0.000000   0.000000  -0.269679   0.000000   0.000000
   32  O  2  Z    0.000000   0.185077   0.000000   0.000000  -0.052993
   33  O  2  S    0.000000  -0.037035   0.000000   0.000000  -0.191098
   34  O  2  X    0.297698   0.000000   0.000000  -0.328939   0.000000
   35  O  2  Y    0.000000   0.000000  -0.328939   0.000000   0.000000
   36  O  2  Z    0.000000   0.134387   0.000000   0.000000   0.014714
   37  O  2  S    0.000000  -0.008556   0.000000   0.000000  -1.932099
   38  O  2  X    0.019612   0.000000   0.000000  -0.289120   0.000000
   39  O  2  Y    0.000000   0.000000  -0.289120   0.000000   0.000000
   40  O  2  Z    0.000000   0.023587   0.000000   0.000000   0.488730
   41  O  2 XX    0.000000   0.006197   0.000000   0.000000  -0.003166
   42  O  2 YY    0.000000   0.006197   0.000000   0.000000  -0.003166
   43  O  2 ZZ    0.000000  -0.014587   0.000000   0.000000  -0.001171
   44  O  2 XY    0.000000   0.000000   0.000000   0.000000   0.000000
   45  O  2 XZ   -0.025381   0.000000   0.000000  -0.012655   0.000000
   46  O  2 YZ    0.000000   0.000000  -0.012655   0.000000   0.000000

                     11         12         13         14         15
                    0.0605     0.0712     0.0712     0.1756     0.2078
                     A          A          A          A          A   
    1  C  1  S    0.026784   0.000000   0.000000   0.021528   0.000000
    2  C  1  S    0.046427   0.000000   0.000000   0.045331   0.000000
    3  C  1  X    0.000000   0.000000   0.144186   0.000000   0.000000
    4  C  1  Y    0.000000   0.144186   0.000000   0.000000   0.013749
    5  C  1  Z    0.041060   0.000000   0.000000  -0.008134   0.000000
    6  C  1  S   -0.131077   0.000000   0.000000  -0.000616   0.000000
    7  C  1  X    0.000000   0.000000   0.190608   0.000000   0.000000
    8  C  1  Y    0.000000   0.190608   0.000000   0.000000   0.083194
    9  C  1  Z    0.020295   0.000000   0.000000   0.011641   0.000000
   10  C  1  S   -0.378483   0.000000   0.000000  -2.096662   0.000000
   11  C  1  X    0.000000   0.000000   0.483663   0.000000   0.000000
   12  C  1  Y    0.000000   0.483663   0.000000   0.000000  -0.205572
   13  C  1  Z    0.207826   0.000000   0.000000  -0.117759   0.000000
   14  C  1  S    0.401563   0.000000   0.000000  -0.284788   0.000000
   15  C  1  X    0.000000   0.000000  -1.172197   0.000000   0.000000
   16  C  1  Y    0.000000  -1.172198   0.000000   0.000000  -1.140431
   17  C  1  Z   -1.228217   0.000000   0.000000   0.549470   0.000000
   18  C  1 XX   -0.002423   0.000000   0.000000   0.062584   0.000000
   19  C  1 YY   -0.002423   0.000000   0.000000   0.062584   0.000000
   20  C  1 ZZ    0.029832   0.000000   0.000000   0.022905   0.000000
   21  C  1 XY    0.000000   0.000000   0.000000   0.000000   0.000000
   22  C  1 XZ    0.000000   0.000000   0.016820   0.000000   0.000000
   23  C  1 YZ    0.000000   0.016820   0.000000   0.000000  -0.003143
   24  O  2  S   -0.014841   0.000000   0.000000  -0.004879   0.000000
   25  O  2  S   -0.024247   0.000000   0.000000  -0.009534   0.000000
   26  O  2  X    0.000000   0.000000  -0.018968   0.000000   0.000000
   27  O  2  Y    0.000000  -0.018968   0.000000   0.000000  -0.127474
   28  O  2  Z   -0.006854   0.000000   0.000000   0.058737   0.000000
   29  O  2  S    0.094836   0.000000   0.000000   0.019948   0.000000
   30  O  2  X    0.000000   0.000000  -0.017050   0.000000   0.000000
   31  O  2  Y    0.000000  -0.017049   0.000000   0.000000  -0.140061
   32  O  2  Z   -0.010071   0.000000   0.000000   0.067812   0.000000
   33  O  2  S    0.050318   0.000000   0.000000   0.160687   0.000000
   34  O  2  X    0.000000   0.000000  -0.117679   0.000000   0.000000
   35  O  2  Y    0.000000  -0.117679   0.000000   0.000000  -0.494940
   36  O  2  Z   -0.010315   0.000000   0.000000   0.174231   0.000000
   37  O  2  S    0.256859   0.000000   0.000000   1.361605   0.000000
   38  O  2  X    0.000000   0.000000   0.012263   0.000000   0.000000
   39  O  2  Y    0.000000   0.012264   0.000000   0.000000   1.988402
   40  O  2  Z    0.148566   0.000000   0.000000  -2.273079   0.000000
   41  O  2 XX    0.002661   0.000000   0.000000   0.006287   0.000000
   42  O  2 YY    0.002661   0.000000   0.000000   0.006287   0.000000
   43  O  2 ZZ    0.002706   0.000000   0.000000  -0.029238   0.000000
   44  O  2 XY    0.000000   0.000000   0.000000   0.000000   0.000000
   45  O  2 XZ    0.000000   0.000000  -0.013720   0.000000   0.000000
   46  O  2 YZ    0.000000  -0.013720   0.000000   0.000000   0.013488

                     16         17
                    0.2078     0.2601
                     A          A   
    1  C  1  S    0.000000  -0.012341
    2  C  1  S    0.000000  -0.025927
    3  C  1  X    0.013749   0.000000
    4  C  1  Y    0.000000   0.000000
    5  C  1  Z    0.000000  -0.041025
    6  C  1  S    0.000000   0.017393
    7  C  1  X    0.083194   0.000000
    8  C  1  Y    0.000000   0.000000
    9  C  1  Z    0.000000  -0.091582
   10  C  1  S    0.000000   2.186982
   11  C  1  X   -0.205572   0.000000
   12  C  1  Y    0.000000   0.000000
   13  C  1  Z    0.000000   0.407815
   14  C  1  S    0.000000   3.188070
   15  C  1  X   -1.140431   0.000000
   16  C  1  Y    0.000000   0.000000
   17  C  1  Z    0.000000   1.623398
   18  C  1 XX    0.000000  -0.045912
   19  C  1 YY    0.000000  -0.045912
   20  C  1 ZZ    0.000000   0.004309
   21  C  1 XY    0.000000   0.000000
   22  C  1 XZ   -0.003143   0.000000
   23  C  1 YZ    0.000000   0.000000
   24  O  2  S    0.000000  -0.042379
   25  O  2  S    0.000000  -0.076831
   26  O  2  X   -0.127474   0.000000
   27  O  2  Y    0.000000   0.000000
   28  O  2  Z    0.000000   0.029855
   29  O  2  S    0.000000   0.208303
   30  O  2  X   -0.140061   0.000000
   31  O  2  Y    0.000000   0.000000
   32  O  2  Z    0.000000  -0.018038
   33  O  2  S    0.000000   1.162043
   34  O  2  X   -0.494940   0.000000
   35  O  2  Y    0.000000   0.000000
   36  O  2  Z    0.000000   0.368294
   37  O  2  S    0.000000  -6.500864
   38  O  2  X    1.988402   0.000000
   39  O  2  Y    0.000000   0.000000
   40  O  2  Z    0.000000   0.916074
   41  O  2 XX    0.000000  -0.026807
   42  O  2 YY    0.000000  -0.026807
   43  O  2 ZZ    0.000000  -0.011178
   44  O  2 XY    0.000000   0.000000
   45  O  2 XZ    0.013488   0.000000
   46  O  2 YZ    0.000000   0.000000

     ---------------------------------------------------------------------
     PROPERTIES FOR THE B3LYP    DFT FUNCTIONAL (RHF  TYPE) DENSITY MATRIX
     ---------------------------------------------------------------------

          -----------------
          ENERGY COMPONENTS
          -----------------

         WAVEFUNCTION NORMALIZATION =       1.0000000000

                ONE ELECTRON ENERGY =    -198.3539201861
                TWO ELECTRON ENERGY =      62.5175374793
           NUCLEAR REPULSION ENERGY =      22.5380312925
                                      ------------------
                       TOTAL ENERGY =    -113.2983514142

 ELECTRON-ELECTRON POTENTIAL ENERGY =      62.5175374793
  NUCLEUS-ELECTRON POTENTIAL ENERGY =    -311.2357502102
   NUCLEUS-NUCLEUS POTENTIAL ENERGY =      22.5380312925
                                      ------------------
             TOTAL POTENTIAL ENERGY =    -226.1801814383
               TOTAL KINETIC ENERGY =     112.8818300241
                 VIRIAL RATIO (V/T) =       2.0036898887

  ...... PI ENERGY ANALYSIS ......

 ENERGY ANALYSIS:
            FOCK ENERGY=    -65.2895341166
          BARE H ENERGY=   -198.3539201861
     ELECTRONIC ENERGY =   -131.8217271513
         KINETIC ENERGY=    112.8818300241
          N-N REPULSION=     22.5380312925
           TOTAL ENERGY=   -109.2836958588
        SIGMA PART(1+2)=   -113.7487614853
               (K,V1,2)=    104.6297980488   -268.7725282718     50.3939687377
           PI PART(1+2)=    -18.0729656660
               (K,V1,2)=      8.2520319753    -42.4632219383     16.1382242970
  SIGMA SKELETON, ERROR=    -91.2107301928      0.0000000000
             MIXED PART= 0.00000E+00 0.00000E+00 0.00000E+00 0.00000E+00
 ...... END OF PI ENERGY ANALYSIS ......

          ---------------------------------------
          MULLIKEN AND LOWDIN POPULATION ANALYSES
          ---------------------------------------

     MULLIKEN ATOMIC POPULATION IN EACH MOLECULAR ORBITAL

                      1          2          3          4          5

                  2.000000   2.000000   2.000000   2.000000   2.000000

    1             0.000279   2.001423   0.584765   0.410492   0.556809
    2             1.999721  -0.001423   1.415235   1.589508   1.443191

                      6          7

                  2.000000   2.000000

    1             0.556809   1.871114
    2             1.443191   0.128886

               ----- POPULATIONS IN EACH AO -----
                             MULLIKEN      LOWDIN
              1  C  1  S      1.10587     1.05080
              2  C  1  S      0.87642     0.91010
              3  C  1  X      0.11478     0.11194
              4  C  1  Y      0.11478     0.11194
              5  C  1  Z      0.30781     0.30398
              6  C  1  S      0.95363     0.53187
              7  C  1  X      0.27562     0.25919
              8  C  1  Y      0.27562     0.25919
              9  C  1  Z      0.49848     0.54800
             10  C  1  S      0.92847     0.38655
             11  C  1  X      0.12787     0.15182
             12  C  1  Y      0.12787     0.15182
             13  C  1  Z      0.08872     0.25327
             14  C  1  S      0.09195     0.14257
             15  C  1  X      0.00388     0.01544
             16  C  1  Y      0.00388     0.01544
             17  C  1  Z      0.01049     0.02606
             18  C  1 XX     -0.00356     0.17076
             19  C  1 YY     -0.00356     0.17076
             20  C  1 ZZ      0.01337     0.22385
             21  C  1 XY      0.00000     0.00000
             22  C  1 XZ      0.03465     0.05489
             23  C  1 YZ      0.03465     0.05489
             24  O  2  S      1.08477     1.03237
             25  O  2  S      0.90242     0.93021
             26  O  2  X      0.30345     0.30398
             27  O  2  Y      0.30345     0.30398
             28  O  2  Z      0.35855     0.35567
             29  O  2  S      1.05757     0.57713
             30  O  2  X      0.63826     0.59895
             31  O  2  Y      0.63826     0.59895
             32  O  2  Z      0.72446     0.70718
             33  O  2  S      0.81568     0.39408
             34  O  2  X      0.47627     0.42096
             35  O  2  Y      0.47627     0.42096
             36  O  2  Z      0.27222     0.39311
             37  O  2  S     -0.04790     0.17422
             38  O  2  X      0.01961     0.07762
             39  O  2  Y      0.01961     0.07762
             40  O  2  Z     -0.02944     0.12541
             41  O  2 XX     -0.01089     0.19016
             42  O  2 YY     -0.01089     0.19016
             43  O  2 ZZ      0.01538     0.21174
             44  O  2 XY      0.00000     0.00000
             45  O  2 XZ      0.00561     0.00521
             46  O  2 YZ      0.00561     0.00521

          ----- MULLIKEN ATOMIC OVERLAP POPULATIONS -----
          (OFF-DIAGONAL ELEMENTS NEED TO BE MULTIPLIED BY 2)

             1           2

    1    5.5960876
    2    0.3856020   7.6327084

          TOTAL MULLIKEN AND LOWDIN ATOMIC POPULATIONS
       ATOM         MULL.POP.    CHARGE          LOW.POP.     CHARGE
    1 C             5.981690    0.018310         5.905120    0.094880
    2 O             8.018310   -0.018310         8.094880   -0.094880

          -------------------------------
          BOND ORDER AND VALENCE ANALYSIS     BOND ORDER THRESHOLD=0.050
          -------------------------------

                   BOND                       BOND                       BOND
  ATOM PAIR DIST  ORDER      ATOM PAIR DIST  ORDER      ATOM PAIR DIST  ORDER
    1   2  1.127  2.215

                       TOTAL       BONDED        FREE
      ATOM            VALENCE     VALENCE     VALENCE
    1 C                 2.215       2.215       0.000
    2 O                 2.215       2.215       0.000

          ---------------------
          ELECTROSTATIC MOMENTS
          ---------------------

 POINT   1           X           Y           Z (BOHR)    CHARGE
                 0.000000    0.000000   -0.005797        0.00 (A.U.)
         DX          DY          DZ         /D/  (DEBYE)
     0.000000    0.000000    0.072442    0.072442
 ...... END OF PROPERTY EVALUATION ......
 STEP CPU TIME =     0.08 TOTAL CPU TIME =      179.8 (    3.0 MIN)
 TOTAL WALL CLOCK TIME=      194.0 SECONDS, CPU UTILIZATION IS  92.66%
  $VIB   
          IVIB=   0 IATOM=   0 ICOORD=   0 E=     -113.2983514142
  0.000000000E+00 0.000000000E+00 2.991988471E-05 0.000000000E+00 0.000000000E+00
 -2.991988471E-05
  0.000000000E+00 0.000000000E+00 7.244176456E-02
 ......END OF GEOMETRY SEARCH......
 STEP CPU TIME =     0.00 TOTAL CPU TIME =      179.8 (    3.0 MIN)
 TOTAL WALL CLOCK TIME=      194.0 SECONDS, CPU UTILIZATION IS  92.66%
 986529 WORDS OF DYNAMIC MEMORY USED
 EXECUTION OF GAMESS TERMINATED NORMALLY Sun Apr 26 10:31:28 2009
 DDI: 262808 bytes (0.3 MB / 0 MWords) used by master data server.

 ----------------------------------------
 CPU timing information for all processes
 ========================================
 0: 179.124000 + 0.652000 = 179.776000
 ----------------------------------------
 ddikick.x: exited gracefully.