 Distributed Data Interface kickoff program.
 Initiating 1 compute processes on 1 nodes to run the following command:
 /home/instructor/gamess/gamess.April2008R1.x /home/instructor/webmo/gutow/141/input 

          ******************************************************
          *         GAMESS VERSION = 11 APR 2008 (R1)          *
          *             FROM IOWA STATE UNIVERSITY             *
          * M.W.SCHMIDT, K.K.BALDRIDGE, J.A.BOATZ, S.T.ELBERT, *
          *   M.S.GORDON, J.H.JENSEN, S.KOSEKI, N.MATSUNAGA,   *
          *          K.A.NGUYEN, S.J.SU, T.L.WINDUS,           *
          *       TOGETHER WITH M.DUPUIS, J.A.MONTGOMERY       *
          *         J.COMPUT.CHEM.  14, 1347-1363(1993)        *
          **************** 32 BIT LINUX VERSION ****************

     SINCE 1993, STUDENTS AND POSTDOCS WORKING AT IOWA STATE UNIVERSITY
     AND ALSO IN THEIR VARIOUS JOBS AFTER LEAVING ISU HAVE MADE IMPORTANT
     CONTRIBUTIONS TO THE CODE:
     IVANA ADAMOVIC, CHRISTINE AIKENS, YURI ALEXEEV, POOJA ARORA, ROB BELL,
     PRADIPTA BANDYOPADHYAY, JONATHAN BENTZ, BRETT BODE, GALINA CHABAN,
     WEI CHEN, CHEOL HO CHOI, PAUL DAY, TIM DUDLEY, DMITRI FEDOROV,
     GRAHAM FLETCHER, MARK FREITAG, KURT GLAESEMANN, DAN KEMP, GRANT MERRILL,
     JONATHAN MULLIN, TAKESHI NAGATA, SEAN NEDD, HEATHER NETZLOFF,
     BOSILJKA NJEGIC, RYAN OLSON, MIKE PAK, JIM SHOEMAKER, LYUDMILA SLIPCHENKO,
     SAROM SOK, JIE SONG, TETSUYA TAKETSUGU, SIMON WEBB, SOOHAENG YOO.

     ADDITIONAL CODE HAS BEEN PROVIDED BY COLLABORATORS IN OTHER GROUPS:
     IOWA STATE UNIVERSITY: JOE IVANIC, KLAUS RUEDENBERG
     UNIVERSITY OF TOKYO: KIMIHIKO HIRAO, TAKAHITO NAKAJIMA,
          TAKAO TSUNEDA, MUNEAKI KAMIYA, SUSUMU YANAGISAWA,
          KIYOSHI YAGI, MAHITO CHIBA, SEIKEN TOKURA, NAOAKI KAWAKAMI
     UNIVERSITY OF AARHUS: FRANK JENSEN
     UNIVERSITY OF IOWA: VISVALDAS KAIRYS, HUI LI
     NATIONAL INST. OF STANDARDS AND TECHNOLOGY: WALT STEVENS, DAVID GARMER
     UNIVERSITY OF PISA: BENEDETTA MENNUCCI, JACOPO TOMASI
     UNIVERSITY OF MEMPHIS: HENRY KURTZ, PRAKASHAN KORAMBATH
     UNIVERSITY OF ALBERTA: MARIUSZ KLOBUKOWSKI
     UNIVERSITY OF NEW ENGLAND: MARK SPACKMAN
     MIE UNIVERSITY: HIROAKI UMEDA
     MICHIGAN STATE UNIVERSITY:
          KAROL KOWALSKI, MARTA WLOCH, JEFFREY R. GOUR, PIOTR PIECUCH
     UNIVERSITY OF SILESIA: MONIKA MUSIAL, STANISLAW KUCHARSKI
     FACULTES UNIVERSITAIRES NOTRE-DAME DE LA PAIX:
          OLIVIER QUINET, BENOIT CHAMPAGNE
     UNIVERSITY OF CALIFORNIA - SANTA BARBARA: BERNARD KIRTMAN
     INSTITUTE FOR MOLECULAR SCIENCE: KAZUYA ISHIMURA AND SHIGERU NAGASE
     UNIVERSITY OF NOTRE DAME: DAN CHIPMAN
     KYUSHU UNIVERSITY:
          HARUYUKI NAKANO,
          FENG LONG GU, JACEK KORCHOWIEC, MARCIN MAKOWSKI, AND YURIKO AOKI,
          HIROTOSHI MORI AND EISAKU MIYOSHI
     PENNSYLVANIA STATE UNIVERSITY:
          TZVETELIN IORDANOV, CHET SWALINA, JONATHAN SKONE,
          SHARON HAMMES-SCHIFFER

 EXECUTION OF GAMESS BEGUN Sat Mar 28 17:29:35 2009

            ECHO OF THE FIRST FEW INPUT CARDS -
 INPUT CARD>!   File created by MacMolPlt 7.2.1                                             
 INPUT CARD> $CONTRL SCFTYP=RHF RUNTYP=OPTIMIZE EXETYP=RUN DFTTYP=BLYP MAXIT=30 MULT=1      
 INPUT CARD>    ISPHER=1 $END                                                               
 INPUT CARD> $SYSTEM TIMLIM=525600 MEMORY=1000000 $END                                      
 INPUT CARD> $BASIS GBASIS=N311 NGAUSS=6 NDFUNC=3 NFFUNC=1 NPFUNC=3 DIFFSP=.TRUE.           
 INPUT CARD>    DIFFS=.TRUE. $END                                                           
 INPUT CARD> $GUESS GUESS=HUCKEL $END                                                       
 INPUT CARD> $SCF DIRSCF=.TRUE. $END                                                        
 INPUT CARD> $STATPT OPTTOL=0.0001 NSTEP=20 $END                                            
 INPUT CARD> $DATA                                                                          
 INPUT CARD>H2O                                                                             
 INPUT CARD>C1                                                                              
 INPUT CARD>O     8.0    -0.00000    -0.06651     0.00000                                   
 INPUT CARD>H     1.0    -0.75391     0.50706     0.00000                                   
 INPUT CARD>H     1.0     0.75391     0.50707     0.00000                                   
 INPUT CARD> $END                                                                           
    1000000 WORDS OF MEMORY AVAILABLE

     BASIS OPTIONS
     -------------
     GBASIS=N311         IGAUSS=       6      POLAR=POPN311 
     NDFUNC=       3     NFFUNC=       1     DIFFSP=       T
     NPFUNC=       3      DIFFS=       T
     SPLIT3=     4.00000000     1.00000000     0.25000000

     LEBEDEV GRID-BASED DFT OPTIONS
     ------------------------------
     DFTTYP=BLYP    
     NRAD  =      96     NLEB  =     302
     NRAD0 =      24     NLEB0 =     110
     SWOFF =    5.00E-03 (PURE SCF -> DFT)
     SWITCH=    3.00E-04 (COARSE -> TIGHT GRID)
     THRESH=    0.00E+00 GTHRE=    1.00E+00


     RUN TITLE
     ---------
 H2O                                                                             

 THE POINT GROUP OF THE MOLECULE IS C1      
 THE ORDER OF THE PRINCIPAL AXIS IS     0

 ATOM      ATOMIC                      COORDINATES (BOHR)
           CHARGE         X                   Y                   Z
 O           8.0     0.0000000000       -0.1256856754        0.0000000000
 H           1.0    -1.4246833194        0.9582044593        0.0000000000
 H           1.0     1.4246833194        0.9582233566        0.0000000000

          INTERNUCLEAR DISTANCES (ANGS.)
          ------------------------------

                1 O          2 H          3 H     

   1 O       0.0000000    0.9472924 *  0.9472984 *
   2 H       0.9472924 *  0.0000000    1.5078200 *
   3 H       0.9472984 *  1.5078200 *  0.0000000  

  * ... LESS THAN  3.000


     ATOMIC BASIS SET
     ----------------
 THE CONTRACTED PRIMITIVE FUNCTIONS HAVE BEEN UNNORMALIZED
 THE CONTRACTED BASIS FUNCTIONS ARE NOW NORMALIZED TO UNITY

  SHELL TYPE  PRIMITIVE        EXPONENT          CONTRACTION COEFFICIENT(S)

 O         

      1   S       1          8588.5000000    0.001895150083
      1   S       2          1297.2300000    0.014385900631
      1   S       3           299.2960000    0.070732003103
      1   S       4            87.3771000    0.240001010530
      1   S       5            25.6789000    0.594797026097
      1   S       6             3.7400400    0.280802012320

      2   L       7            42.1175000    0.113889012440    0.036511397380
      2   L       8             9.6283700    0.920811100576    0.237152982984
      2   L       9             2.8533200   -0.003274470358    0.819701941186

      3   L      10             0.9056610    1.000000000000    1.000000000000

      4   L      11             0.2556110    1.000000000000    1.000000000000

      5   L      12             0.0845000    1.000000000000    1.000000000000

      6   D      13             5.1680000    1.000000000000

      7   D      14             1.2920000    1.000000000000

      8   D      15             0.3230000    1.000000000000

      9   F      16             1.4000000    1.000000000000

 H         

     10   S      17            33.8650000    0.025493814541
     10   S      18             5.0947900    0.190373108582
     10   S      19             1.1587900    0.852161486043

     11   S      20             0.3258400    1.000000000000

     12   S      21             0.1027410    1.000000000000

     13   S      22             0.0360000    1.000000000000

     14   P      23             3.0000000    1.000000000000

     15   P      24             0.7500000    1.000000000000

     16   P      25             0.1875000    1.000000000000

 H         

     17   S      26            33.8650000    0.025493814541
     17   S      27             5.0947900    0.190373108582
     17   S      28             1.1587900    0.852161486043

     18   S      29             0.3258400    1.000000000000

     19   S      30             0.1027410    1.000000000000

     20   S      31             0.0360000    1.000000000000

     21   P      32             3.0000000    1.000000000000

     22   P      33             0.7500000    1.000000000000

     23   P      34             0.1875000    1.000000000000

 TOTAL NUMBER OF BASIS SET SHELLS             =   23
 NUMBER OF CARTESIAN GAUSSIAN BASIS FUNCTIONS =   71
 NOTE: THIS RUN WILL RESTRICT THE MO VARIATION SPACE TO SPHERICAL HARMONICS.
 THE NUMBER OF ORBITALS KEPT IN THE VARIATIONAL SPACE WILL BE PRINTED LATER.
 NUMBER OF ELECTRONS                          =   10
 CHARGE OF MOLECULE                           =    0
 SPIN MULTIPLICITY                            =    1
 NUMBER OF OCCUPIED ORBITALS (ALPHA)          =    5
 NUMBER OF OCCUPIED ORBITALS (BETA )          =    5
 TOTAL NUMBER OF ATOMS                        =    3
 THE NUCLEAR REPULSION ENERGY IS        9.2888598958

     $CONTRL OPTIONS
     ---------------
 SCFTYP=RHF          RUNTYP=OPTIMIZE     EXETYP=RUN     
 MPLEVL=       0     CITYP =NONE         CCTYP =NONE         VBTYP =NONE    
 DFTTYP=BLYP         TDDFT =NONE    
 MULT  =       1     ICHARG=       0     NZVAR =       0     COORD =UNIQUE  
 PP    =NONE         RELWFN=NONE         LOCAL =NONE         NUMGRD=       F
 ISPHER=       1     NOSYM =       0     MAXIT =      30     UNITS =ANGS    
 PLTORB=       F     MOLPLT=       F     AIMPAC=       F     FRIEND=        
 NPRINT=       7     IREST =       0     GEOM  =INPUT   
 NORMF =       0     NORMP =       0     ITOL  =      20     ICUT  =       9
 INTTYP=BEST         GRDTYP=BEST         QMTTOL= 1.0E-06

     $SYSTEM OPTIONS
     ---------------
  REPLICATED MEMORY=     1000000 WORDS (ON EVERY NODE).
 DISTRIBUTED MEMDDI=           0 MILLION WORDS IN AGGREGATE,
 MEMDDI DISTRIBUTED OVER   1 PROCESSORS IS           0 WORDS/PROCESSOR.
 TOTAL MEMORY REQUESTED ON EACH PROCESSOR=     1000000 WORDS.
 TIMLIM=      525600.00 MINUTES, OR   365.00 DAYS.
 PARALL= F  BALTYP=  NXTVAL  KDIAG=    0  COREFL= F

          ----------------
          PROPERTIES INPUT
          ----------------

     MOMENTS            FIELD           POTENTIAL          DENSITY
 IEMOM =       1   IEFLD =       0   IEPOT =       0   IEDEN =       0
 WHERE =COMASS     WHERE =NUCLEI     WHERE =NUCLEI     WHERE =NUCLEI  
 OUTPUT=BOTH       OUTPUT=BOTH       OUTPUT=BOTH       OUTPUT=BOTH    
 IEMINT=       0   IEFINT=       0                     IEDINT=       0
                                                       MORB  =       0
          EXTRAPOLATION IN EFFECT
          DIIS IN EFFECT
 ORBITAL PRINTING OPTION: NPREO=   1  71   2   1

     -------------------------------
     INTEGRAL TRANSFORMATION OPTIONS
     -------------------------------
     NWORD  =         0     CUTOFF = 1.0E-09
     MPTRAN =         0     DIRTRF =       T
     AOINTS =DUP     

          ----------------------
          INTEGRAL INPUT OPTIONS
          ----------------------
 NOPK  =       1 NORDER=       0 SCHWRZ=       T

     ------------------------------------------
     THE POINT GROUP IS C1 , NAXIS= 0, ORDER= 1
     ------------------------------------------

 -- VARIATIONAL SPACE WILL BE RESTRICTED TO PURE SPHERICAL HARMONICS ONLY --
 AFTER EXCLUDING CONTAMINANT COMBINATIONS FROM THE CARTESIAN GAUSSIAN BASIS
 SET, THE NUMBER OF SPHERICAL HARMONICS KEPT IN THE VARIATION SPACE IS   65

     DIMENSIONS OF THE SYMMETRY SUBSPACES ARE
 A   =   65

 ..... DONE SETTING UP THE RUN .....
 STEP CPU TIME =     0.09 TOTAL CPU TIME =        0.1 (    0.0 MIN)
 TOTAL WALL CLOCK TIME=        0.0 SECONDS, CPU UTILIZATION IS 100.00%


          -----------------------------
          STATIONARY POINT LOCATION RUN
          -----------------------------

 OBTAINING INITIAL HESSIAN, HESS=GUESS   
 CARTESIAN COORDINATE OPTIMIZATION USING BADGER'S RULE FORCE CONSTANT GUESS

          PARAMETERS CONTROLLING GEOMETRY SEARCH ARE
          METHOD =QA                  UPHESS =BFGS    
          NNEG   =         0          NFRZ   =         0
          NSTEP  =        20          IFOLOW =         1
          HESS   =GUESS               RESTAR =         F
          IHREP  =         0          HSSEND =         F
          NPRT   =         0          NPUN   =         0
          OPTTOL = 1.000E-04          RMIN   = 1.500E-03
          RMAX   = 1.000E-01          RLIM   = 7.000E-02
          DXMAX  = 3.000E-01          PURIFY =         F
          MOVIE  =         F          TRUPD  =         T
          TRMAX  = 5.000E-01          TRMIN  = 5.000E-02
          ITBMAT =         5          STPT   =         F
          STSTEP = 1.000E-02          PROJCT=          T

 BEGINNING GEOMETRY SEARCH POINT NSERCH=   0 ...

 COORDINATES OF ALL ATOMS ARE (ANGS)
   ATOM   CHARGE       X              Y              Z
 ------------------------------------------------------------
 O           8.0   0.0000000000  -0.0665100000   0.0000000000
 H           1.0  -0.7539100000   0.5070600000   0.0000000000
 H           1.0   0.7539100000   0.5070700000   0.0000000000

          ********************
          1 ELECTRON INTEGRALS
          ********************
 ...... END OF ONE-ELECTRON INTEGRALS ......
 STEP CPU TIME =     0.02 TOTAL CPU TIME =        0.1 (    0.0 MIN)
 TOTAL WALL CLOCK TIME=        0.0 SECONDS, CPU UTILIZATION IS 100.00%

          -------------
          GUESS OPTIONS
          -------------
          GUESS =HUCKEL            NORB  =       0          NORDER=       0
          MIX   =       F          PRTMO =       F          PUNMO =       F
          TOLZ  = 1.0E-08          TOLE  = 1.0E-05
          SYMDEN=       F          PURIFY=       F

 INITIAL GUESS ORBITALS GENERATED BY HUCKEL   ROUTINE.
 HUCKEL GUESS REQUIRES     38857 WORDS.

 STATISTICS FOR GENERATION OF SYMMETRY ORBITAL -Q- MATRIX
 NUMBER OF CARTESIAN ATOMIC ORBITALS=         71
 NUMBER OF SPHERICAL CONTAMINANTS DROPPED=     6
 NUMBER OF LINEARLY DEPENDENT MOS DROPPED=     0
 TOTAL NUMBER OF MOS IN VARIATION SPACE=      65

 SYMMETRIES FOR INITIAL GUESS ORBITALS FOLLOW.   BOTH SET(S).
     5 ORBITALS ARE OCCUPIED (    1 CORE ORBITALS).
     2=A        3=A        4=A        5=A        6=A        7=A        8=A   
     9=A       10=A       11=A       12=A       13=A       14=A       15=A   
 ...... END OF INITIAL ORBITAL SELECTION ......
 STEP CPU TIME =     0.12 TOTAL CPU TIME =        0.2 (    0.0 MIN)
 TOTAL WALL CLOCK TIME=        2.0 SECONDS, CPU UTILIZATION IS  11.50%

                    ----------------------
                    AO INTEGRAL TECHNOLOGY
                    ----------------------
     S,P,L SHELL ROTATED AXIS INTEGRALS, REPROGRAMMED BY
        KAZUYA ISHIMURA (IMS) AND JOSE SIERRA (SYNSTAR).
     S,P,D,L SHELL ROTATED AXIS INTEGRALS PROGRAMMED BY
        KAZUYA ISHIMURA (INSTITUTE FOR MOLECULAR SCIENCE).
     S,P,D,F,G SHELL TO TOTAL QUARTET ANGULAR MOMENTUM SUM 5,
        ERIC PROGRAM BY GRAHAM FLETCHER (ELORET AND NASA ADVANCED
        SUPERCOMPUTING DIVISION, AMES RESEARCH CENTER).
     S,P,D,F,G,L SHELL GENERAL RYS QUADRATURE PROGRAMMED BY
        MICHEL DUPUIS (PACIFIC NORTHWEST NATIONAL LABORATORY).

          --------------------
          2 ELECTRON INTEGRALS
          --------------------

 DIRECT SCF METHOD SKIPS INTEGRAL STORAGE ON DISK.
 DIRECT TRANSFORMATION SKIPS AO INTEGRAL STORAGE ON DISK.
  ...... END OF TWO-ELECTRON INTEGRALS .....
 STEP CPU TIME =     0.34 TOTAL CPU TIME =        0.6 (    0.0 MIN)
 TOTAL WALL CLOCK TIME=        2.0 SECONDS, CPU UTILIZATION IS  28.50%

          --------------------------
              R-BLYP SCF CALCULATION
          --------------------------

     NUCLEAR ENERGY =         9.2888598958
     MAXIT =   30     NPUNCH=    2
     EXTRAP=T  DAMP=F  SHIFT=F  RSTRCT=F  DIIS=T  DEM=F  SOSCF=F
         DENSITY MATRIX CONVERGENCE THRESHOLD=  2.00E-05
     COARSE -> FINE DFT GRID SWITCH THRESHOLD=  3.00E-04 (SWITCH IN $DFT)
                   HF -> DFT SWITCH THRESHOLD=  5.00E-03 (SWOFF IN $DFT)
     MEMORY REQUIRED FOR RHF ITERS=    228192 WORDS.

 DIRECT SCF CALCULATION, SCHWRZ=T   FDIFF=T,  DIRTHR=  0.00E+00 NITDIR=10
 SCHWARZ INEQUALITY OVERHEAD:      2556 INTEGRALS, T=        0.03

 DFT CODE IS SWITCHING FROM THE FINE GRID NRAD= 96,  NLEB=  302
                      TO THE COARSE GRID NRAD0= 24, NLEB0=  110

     EXCHANGE FUNCTIONAL   =BECKE88   
     CORRELATION FUNCTIONAL=LYP88     
     DFT THRESHOLD         =.460E-07
     GRID CHANGE THRESHOLD =.300E-03
 DFT IS SWITCHED OFF, PERFORMING PURE SCF UNTIL SWOFF THRESHOLD IS REACHED.

                                                                                   NONZERO     BLOCKS
 ITER EX DEM     TOTAL ENERGY        E CHANGE  DENSITY CHANGE    DIIS ERROR      INTEGRALS    SKIPPED
   1  0  0      -75.7598318555   -75.7598318555   0.255222209   1.040292200        1490777          1
          * * *   INITIATING DIIS PROCEDURE   * * *
   2  1  0      -76.0415447984    -0.2817129429   0.053591625   0.083669742        1490777          1
   3  2  0      -76.0564820956    -0.0149372972   0.033254789   0.025265438        1490777          1
   4  3  0      -76.0582338623    -0.0017517667   0.009527939   0.016036689        1490599          5
   5  4  0      -76.0584496783    -0.0002158160   0.002888945   0.004188423        1490548          8
 CONVERGED TO SWOFF, SO DFT CALCULATION IS NOW SWITCHED ON.
          * * *   INITIATING DIIS PROCEDURE   * * *
   6  5  0      -76.4333241264    -0.3748744480   0.118883654   0.095162963        1490777          1
   7  6  0      -76.4446991127    -0.0113749863   0.025796561   0.012460673        1490777          1
   8  7  0      -76.4448512489    -0.0001521362   0.001666575   0.002858841        1490599          5
   9  8  0      -76.4448408531     0.0000103958   0.001442086   0.004618149        1490224         15
  10  9  0      -76.4448618626    -0.0000210095   0.000185749   0.000579499        1489558         24
 DFT CODE IS SWITCHING BACK TO THE FINE GRID
          * * *   INITIATING DIIS PROCEDURE   * * *
  11 10  0      -76.4458044278    -0.0009425652   0.004625752   0.002417229        1490777          1
  12 11  0      -76.4458077135    -0.0000032857   0.000304494   0.000334987        1490536         10
  13 12  0      -76.4458074632     0.0000002503   0.000210473   0.000663208        1488662         58
  14 13  0      -76.4458078416    -0.0000003784   0.000025489   0.000064559        1486372         97
  15 14  0      -76.4458078473    -0.0000000057   0.000002274   0.000007559        1485042        168
  16 15  0      -76.4458078474    -0.0000000001   0.000000163   0.000000634        1473747        522

          -----------------
          DENSITY CONVERGED
          -----------------
     TIME TO FORM FOCK OPERATORS=     109.6 SECONDS (       6.9 SEC/ITER)
     FOCK TIME ON FIRST ITERATION=       2.5, LAST ITERATION=      13.3
     TIME TO SOLVE SCF EQUATIONS=       0.8 SECONDS (       0.1 SEC/ITER)

 FINAL R-BLYP ENERGY IS      -76.4458078474 AFTER  16 ITERATIONS
 DFT EXCHANGE + CORRELATION ENERGY =        -9.3266753784
 TOTAL ELECTRON NUMBER             =         9.9999991675

          ------------
          EIGENVECTORS
          ------------

                      1          2          3          4          5
                  -18.7745    -0.9311    -0.4886    -0.3396    -0.2653
                     A          A          A          A          A   
    1  O  1  S    0.551972  -0.116872   0.000000   0.044995   0.000000
    2  O  1  S    0.468550  -0.184704   0.000000   0.072462   0.000000
    3  O  1  X    0.000000  -0.000001   0.247093  -0.000001   0.000000
    4  O  1  Y    0.001151   0.058377   0.000000   0.264357   0.000000
    5  O  1  Z    0.000000   0.000000   0.000000   0.000000   0.299883
    6  O  1  S    0.016605   0.533593  -0.000008  -0.220060   0.000000
    7  O  1  X    0.000000  -0.000002   0.349382  -0.000001   0.000000
    8  O  1  Y    0.000395   0.090673   0.000003   0.372659   0.000000
    9  O  1  Z    0.000000   0.000000   0.000000   0.000000   0.430125
   10  O  1  S   -0.025329   0.459003   0.000115  -0.318455   0.000000
   11  O  1  X    0.000000  -0.000065   0.245706  -0.000048   0.000000
   12  O  1  Y   -0.006334   0.074591   0.000046   0.285189   0.000000
   13  O  1  Z    0.000000   0.000000   0.000000   0.000000   0.385880
   14  O  1  S   -0.013812   0.067893   0.000192  -0.115464   0.000000
   15  O  1  X    0.000000  -0.000027   0.021518  -0.000022   0.000000
   16  O  1  Y   -0.003383   0.013875   0.000049   0.054125   0.000000
   17  O  1  Z    0.000000   0.000000   0.000000   0.000000   0.112205
   18  O  1 XX    0.000022   0.000395   0.000000   0.000122   0.000000
   19  O  1 YY    0.000011   0.000249   0.000000   0.001183   0.000000
   20  O  1 ZZ   -0.000032  -0.000645   0.000000  -0.001305   0.000000
   21  O  1 XY    0.000000   0.000000   0.002797   0.000000   0.000000
   22  O  1 XZ    0.000000   0.000000   0.000000   0.000000   0.000000
   23  O  1 YZ    0.000000   0.000000   0.000000   0.000000   0.001189
   24  O  1 XX    0.000333   0.007203   0.000001  -0.005395   0.000000
   25  O  1 YY    0.000021   0.003355   0.000000   0.013211   0.000000
   26  O  1 ZZ   -0.000354  -0.010558  -0.000001  -0.007816   0.000000
   27  O  1 XY    0.000000  -0.000001   0.022203  -0.000001   0.000000
   28  O  1 XZ    0.000000   0.000000   0.000000   0.000000   0.000000
   29  O  1 YZ    0.000000   0.000000   0.000000   0.000000   0.012742
   30  O  1 XX   -0.001314   0.007493   0.000008  -0.018948   0.000000
   31  O  1 YY   -0.000298   0.005405   0.000004   0.024127   0.000000
   32  O  1 ZZ    0.001612  -0.012897  -0.000012  -0.005179   0.000000
   33  O  1 XY    0.000000  -0.000021   0.016210  -0.000016   0.000000
   34  O  1 XZ    0.000000   0.000000   0.000000   0.000000   0.000000
   35  O  1 YZ    0.000000   0.000000   0.000000   0.000000   0.025332
   36  O  1 XXX   0.000000   0.000000   0.003226   0.000000   0.000000
   37  O  1 YYY  -0.000047  -0.000931   0.000000   0.001537   0.000000
   38  O  1 ZZZ   0.000000   0.000000   0.000000   0.000000  -0.005277
   39  O  1 XXY   0.000071   0.003675   0.000001   0.001196   0.000000
   40  O  1 XXZ   0.000000   0.000000   0.000000   0.000000   0.004860
   41  O  1 YYX   0.000000  -0.000001   0.000108   0.000000   0.000000
   42  O  1 YYZ   0.000000   0.000000   0.000000   0.000000   0.002220
   43  O  1 ZZX   0.000000   0.000001  -0.004437   0.000001   0.000000
   44  O  1 ZZY  -0.000008  -0.002426  -0.000001  -0.003258   0.000000
   45  O  1 XYZ   0.000000   0.000000   0.000000   0.000000   0.000000
   46  H  2  S   -0.000372   0.103301  -0.157525   0.087572   0.000000
   47  H  2  S    0.006732   0.030539  -0.157952   0.131823   0.000000
   48  H  2  S    0.011136  -0.043314  -0.035177   0.075493   0.000000
   49  H  2  S   -0.000331   0.003140  -0.011216   0.002948   0.000000
   50  H  2  X   -0.000147   0.004371  -0.002656   0.002774   0.000000
   51  H  2  Y    0.000081  -0.002688   0.003755   0.001434   0.000000
   52  H  2  Z    0.000000   0.000000   0.000000   0.000000   0.003847
   53  H  2  X   -0.000135   0.009387  -0.006391   0.014871   0.000000
   54  H  2  Y    0.000305  -0.005440   0.014612   0.006444   0.000000
   55  H  2  Z    0.000000   0.000000   0.000000   0.000000   0.021681
   56  H  2  X    0.004239  -0.017821   0.010696   0.009435   0.000000
   57  H  2  Y   -0.003223   0.012744  -0.008163   0.007062   0.000000
   58  H  2  Z    0.000000   0.000000   0.000000   0.000000   0.016246
   59  H  3  S   -0.000372   0.103299   0.157524   0.087572   0.000000
   60  H  3  S    0.006732   0.030647   0.157862   0.131903   0.000000
   61  H  3  S    0.011135  -0.043169   0.034951   0.075600   0.000000
   62  H  3  S   -0.000330   0.003131   0.011207   0.002943   0.000000
   63  H  3  X    0.000147  -0.004370  -0.002656  -0.002773   0.000000
   64  H  3  Y    0.000081  -0.002687  -0.003756   0.001435   0.000000
   65  H  3  Z    0.000000   0.000000   0.000000   0.000000   0.003847
   66  H  3  X    0.000135  -0.009395  -0.006379  -0.014877   0.000000
   67  H  3  Y    0.000305  -0.005448  -0.014605   0.006438   0.000000
   68  H  3  Z    0.000000   0.000000   0.000000   0.000000   0.021680
   69  H  3  X   -0.004239   0.017767   0.010752  -0.009473   0.000000
   70  H  3  Y   -0.003223   0.012703   0.008198   0.007032   0.000000
   71  H  3  Z    0.000000   0.000000   0.000000   0.000000   0.016246

                      6          7          8          9         10
                   -0.0352     0.0202     0.1229     0.1336     0.1337
                     A          A          A          A          A   
    1  O  1  S   -0.032492   0.000000   0.022215   0.000005   0.000000
    2  O  1  S   -0.053428  -0.000001   0.036067   0.000007   0.000000
    3  O  1  X    0.000000   0.096928  -0.000006   0.123483   0.000000
    4  O  1  Y    0.077015   0.000002  -0.144085   0.000006   0.000000
    5  O  1  Z    0.000000   0.000000   0.000000   0.000000  -0.144458
    6  O  1  S    0.180382   0.000013  -0.114735   0.000017   0.000000
    7  O  1  X    0.000001   0.146971  -0.000008   0.151242   0.000000
    8  O  1  Y    0.114477   0.000001  -0.189129   0.000002   0.000000
    9  O  1  Z    0.000000   0.000000   0.000000   0.000000  -0.164317
   10  O  1  S    0.371852  -0.000127  -0.311516  -0.000676   0.000000
   11  O  1  X   -0.000050   0.080330  -0.000034   0.868191   0.000000
   12  O  1  Y    0.199052  -0.000056  -0.298141  -0.000203   0.000000
   13  O  1  Z    0.000000   0.000000   0.000000   0.000000  -0.451692
   14  O  1  S    0.835683  -0.000252  -0.525071  -0.003329   0.000000
   15  O  1  X   -0.000058   0.384121  -0.000090   2.026940   0.000000
   16  O  1  Y    0.125931  -0.000058   0.199129  -0.001191   0.000000
   17  O  1  Z    0.000000   0.000000   0.000000   0.000000   1.287692
   18  O  1 XX   -0.000422   0.000000   0.000757   0.000001   0.000000
   19  O  1 YY    0.000285   0.000000  -0.000018   0.000000   0.000000
   20  O  1 ZZ    0.000137   0.000000  -0.000739   0.000000   0.000000
   21  O  1 XY    0.000000   0.000333   0.000000  -0.001202   0.000000
   22  O  1 XZ    0.000000   0.000000   0.000000   0.000000   0.000000
   23  O  1 YZ    0.000000   0.000000   0.000000   0.000000   0.000519
   24  O  1 XX   -0.002076  -0.000001   0.009967   0.000001   0.000000
   25  O  1 YY    0.003402   0.000000  -0.009624   0.000002   0.000000
   26  O  1 ZZ   -0.001326   0.000001  -0.000343  -0.000003   0.000000
   27  O  1 XY    0.000000  -0.000957   0.000001  -0.017675   0.000000
   28  O  1 XZ    0.000000   0.000000   0.000000   0.000000   0.000000
   29  O  1 YZ    0.000000   0.000000   0.000000   0.000000  -0.011829
   30  O  1 XX    0.002634  -0.000012   0.028607  -0.000035   0.000000
   31  O  1 YY    0.012222  -0.000004   0.015752  -0.000022   0.000000
   32  O  1 ZZ   -0.014857   0.000016  -0.044358   0.000056   0.000000
   33  O  1 XY   -0.000012  -0.004904  -0.000005   0.125612   0.000000
   34  O  1 XZ    0.000000   0.000000   0.000000   0.000000  -0.000001
   35  O  1 YZ    0.000000   0.000000   0.000000   0.000000   0.028561
   36  O  1 XXX   0.000000   0.000971   0.000000   0.003366   0.000000
   37  O  1 YYY  -0.000284   0.000001  -0.000486   0.000002   0.000000
   38  O  1 ZZZ   0.000000   0.000000   0.000000   0.000000   0.003752
   39  O  1 XXY   0.001967  -0.000002  -0.000274  -0.000004   0.000000
   40  O  1 XXZ   0.000000   0.000000   0.000000   0.000000  -0.003650
   41  O  1 YYX   0.000000  -0.000490   0.000000   0.000031   0.000000
   42  O  1 YYZ   0.000000   0.000000   0.000000   0.000000  -0.001383
   43  O  1 ZZX   0.000000  -0.000813   0.000000  -0.004548   0.000000
   44  O  1 ZZY  -0.001586   0.000001   0.000925   0.000002   0.000000
   45  O  1 XYZ   0.000000   0.000000   0.000000   0.000000   0.000000
   46  H  2  S   -0.021082   0.006287   0.062353   0.082911   0.000000
   47  H  2  S   -0.146332   0.016381  -0.029597   0.490574   0.000000
   48  H  2  S   -0.432300   0.234531   1.309006   4.113863   0.000000
   49  H  2  S   -0.542345   2.015188  -0.800215  -1.410176   0.000000
   50  H  2  X    0.003324  -0.001700  -0.004165  -0.001662   0.000000
   51  H  2  Y   -0.001514   0.001216   0.001461   0.004187   0.000000
   52  H  2  Z    0.000000   0.000000   0.000000   0.000000  -0.002584
   53  H  2  X    0.009510  -0.011357  -0.020733  -0.000113   0.000000
   54  H  2  Y   -0.006156   0.016226   0.012588   0.004593   0.000000
   55  H  2  Z    0.000000   0.000000   0.000000   0.000000   0.017661
   56  H  2  X   -0.007296  -0.092068  -0.082966   0.450290   0.000000
   57  H  2  Y   -0.010366   0.029199   0.032568  -0.217695   0.000000
   58  H  2  Z    0.000000   0.000000   0.000000   0.000000  -0.071131
   59  H  3  S   -0.021084  -0.006287   0.062363  -0.082876   0.000000
   60  H  3  S   -0.146263  -0.016263  -0.029556  -0.490151   0.000000
   61  H  3  S   -0.432043  -0.234268   1.309345  -4.109747   0.000000
   62  H  3  S   -0.542348  -2.015164  -0.800374   1.410084   0.000000
   63  H  3  X   -0.003324  -0.001699   0.004165  -0.001660   0.000000
   64  H  3  Y   -0.001514  -0.001216   0.001462  -0.004187   0.000000
   65  H  3  Z    0.000000   0.000000   0.000000   0.000000  -0.002584
   66  H  3  X   -0.009513  -0.011372   0.020733  -0.000138   0.000000
   67  H  3  Y   -0.006159  -0.016235   0.012589  -0.004620   0.000000
   68  H  3  Z    0.000000   0.000000   0.000000   0.000000   0.017661
   69  H  3  X    0.007221  -0.092132   0.082945   0.449893   0.000000
   70  H  3  Y   -0.010415  -0.029240   0.032558   0.217445   0.000000
   71  H  3  Z    0.000000   0.000000   0.000000   0.000000  -0.071127

                     11         12         13         14         15
                    0.1366     0.1871     0.1997     0.3099     0.3300
                     A          A          A          A          A   
    1  O  1  S   -0.033258   0.021857   0.000012   0.004726   0.000000
    2  O  1  S   -0.054261   0.038014   0.000020   0.008167   0.000000
    3  O  1  X    0.000032   0.000098  -0.128380   0.000004   0.000000
    4  O  1  Y   -0.052822   0.010765   0.000006   0.047110   0.000000
    5  O  1  Z    0.000000   0.000000   0.000000   0.000000   0.000000
    6  O  1  S    0.195338  -0.208148  -0.000086  -0.051312   0.000000
    7  O  1  X    0.000040   0.000138  -0.171116   0.000015   0.000000
    8  O  1  Y   -0.045751  -0.011518  -0.000012   0.024282   0.000000
    9  O  1  Z    0.000000   0.000000   0.000000   0.000000   0.000000
   10  O  1  S    0.113710   1.070884   0.000205   0.348839   0.000000
   11  O  1  X    0.000167  -0.000434  -0.083297  -0.000421   0.000000
   12  O  1  Y   -0.460287   0.718870   0.000231   0.726969   0.000000
   13  O  1  Z    0.000000   0.000000   0.000000   0.000000  -0.000001
   14  O  1  S    1.832909  11.922362   0.006251   4.810395   0.000000
   15  O  1  X    0.000415  -0.001848   3.078751  -0.000259   0.000000
   16  O  1  Y    1.911450   3.076163   0.001641   2.205593   0.000000
   17  O  1  Z    0.000000   0.000000   0.000000   0.000000  -0.000011
   18  O  1 XX   -0.000786  -0.000576   0.000000  -0.000819   0.000000
   19  O  1 YY    0.000649   0.000265   0.000000   0.000119   0.000000
   20  O  1 ZZ    0.000137   0.000311   0.000000   0.000700   0.000000
   21  O  1 XY    0.000000   0.000000   0.000086   0.000000   0.000000
   22  O  1 XZ    0.000000   0.000000   0.000000   0.000000   0.000319
   23  O  1 YZ    0.000000   0.000000   0.000000   0.000000   0.000000
   24  O  1 XX   -0.007952  -0.014002  -0.000012   0.039704   0.000000
   25  O  1 YY   -0.006331   0.000908   0.000002  -0.039335   0.000000
   26  O  1 ZZ    0.014283   0.013094   0.000010  -0.000369   0.000000
   27  O  1 XY   -0.000004   0.000001  -0.016295  -0.000005   0.000000
   28  O  1 XZ    0.000000   0.000000   0.000000   0.000000   0.040222
   29  O  1 YZ    0.000000   0.000000   0.000000   0.000000   0.000000
   30  O  1 XX   -0.064042   0.116453   0.000035  -0.141620   0.000000
   31  O  1 YY    0.009208   0.026743   0.000000   0.161706   0.000000
   32  O  1 ZZ    0.054835  -0.143195  -0.000035  -0.020086   0.000000
   33  O  1 XY    0.000018  -0.000196   0.095372  -0.000112   0.000000
   34  O  1 XZ    0.000000   0.000000   0.000000   0.000000  -0.089876
   35  O  1 YZ    0.000000   0.000000   0.000000   0.000000   0.000000
   36  O  1 XXX   0.000001   0.000001  -0.003248  -0.000001   0.000000
   37  O  1 YYY   0.001188  -0.002871   0.000000  -0.003077   0.000000
   38  O  1 ZZZ   0.000000   0.000000   0.000000   0.000000   0.000000
   39  O  1 XXY  -0.005827   0.007480   0.000000   0.005828   0.000000
   40  O  1 XXZ   0.000000   0.000000   0.000000   0.000000   0.000000
   41  O  1 YYX   0.000000  -0.000004   0.003285  -0.000002   0.000000
   42  O  1 YYZ   0.000000   0.000000   0.000000   0.000000   0.000000
   43  O  1 ZZX  -0.000001   0.000003   0.001072   0.000003   0.000000
   44  O  1 ZZY   0.004233  -0.003627   0.000000  -0.001700   0.000000
   45  O  1 XYZ   0.000000   0.000000   0.000000   0.000000   0.005335
   46  H  2  S   -0.058868  -0.017788  -0.001498   0.020205   0.000000
   47  H  2  S    0.185014  -0.533609   0.170815  -0.130016   0.000000
   48  H  2  S   -1.894037  -6.064202   2.102535  -2.764802   0.000000
   49  H  2  S    0.427677  -0.522599   2.098114  -0.040826   0.000000
   50  H  2  X   -0.001418   0.001493   0.002249  -0.003256   0.000000
   51  H  2  Y    0.000338   0.001663  -0.004107  -0.007865   0.000000
   52  H  2  Z    0.000000   0.000000   0.000000   0.000000  -0.012971
   53  H  2  X    0.045310  -0.031938   0.022495  -0.032270   0.000000
   54  H  2  Y   -0.009237   0.025463   0.007545   0.000218   0.000000
   55  H  2  Z    0.000000   0.000000   0.000000   0.000000   0.022481
   56  H  2  X    0.092207  -0.566646   0.248754  -0.743994   0.000000
   57  H  2  Y   -0.061433   0.490092  -0.286256  -0.688993   0.000000
   58  H  2  Z    0.000000   0.000000   0.000000   0.000000  -1.036650
   59  H  3  S   -0.058911  -0.017844   0.001475   0.020178   0.000000
   60  H  3  S    0.184838  -0.532721  -0.171081  -0.129509   0.000000
   61  H  3  S   -1.895761  -6.060583  -2.108817  -2.762927   0.000000
   62  H  3  S    0.428393  -0.520049  -2.098679  -0.041162   0.000000
   63  H  3  X    0.001417  -0.001494   0.002249   0.003257   0.000000
   64  H  3  Y    0.000336   0.001659   0.004110  -0.007863   0.000000
   65  H  3  Z    0.000000   0.000000   0.000000   0.000000   0.012971
   66  H  3  X   -0.045313   0.031870   0.022490   0.032244   0.000000
   67  H  3  Y   -0.009244   0.025421  -0.007541   0.000184   0.000000
   68  H  3  Z    0.000000   0.000000   0.000000   0.000000  -0.022481
   69  H  3  X   -0.092075   0.565606   0.249174   0.743368   0.000000
   70  H  3  Y   -0.061380   0.489249   0.286726  -0.689416   0.000000
   71  H  3  Z    0.000000   0.000000   0.000000   0.000000   1.036667

                     16         17         18         19         20
                    0.3734     0.4085     0.5025     0.5316     0.6520
                     A          A          A          A          A   
    1  O  1  S    0.000000   0.000004   0.019095  -0.000006  -0.051947
    2  O  1  S    0.000000   0.000004   0.036929  -0.000011  -0.082071
    3  O  1  X    0.000000  -0.091973  -0.000009   0.081655  -0.000091
    4  O  1  Y    0.000000   0.000017  -0.116500   0.000019   0.063234
    5  O  1  Z   -0.081070   0.000000   0.000000   0.000000   0.000000
    6  O  1  S    0.000000   0.000071  -0.251772   0.000023   0.073391
    7  O  1  X    0.000000  -0.223570  -0.000022   0.110408  -0.000138
    8  O  1  Y    0.000000   0.000003  -0.211862   0.000042   0.131481
    9  O  1  Z   -0.055072   0.000000   0.000000   0.000000   0.000000
   10  O  1  S    0.000000  -0.001434   1.741511   0.000404   6.646554
   11  O  1  X    0.000000   1.982803  -0.000173   0.570841  -0.002259
   12  O  1  Y    0.000000  -0.000382  -0.029613   0.000232   2.117672
   13  O  1  Z   -0.743602   0.000000   0.000000   0.000000   0.000000
   14  O  1  S    0.000000  -0.000731   7.793352  -0.000556   9.505161
   15  O  1  X    0.000000   3.186455   0.000391   1.786607  -0.001014
   16  O  1  Y    0.000000   0.000008   2.100186  -0.000208   1.861038
   17  O  1  Z   -1.054089   0.000000   0.000000   0.000000   0.000000
   18  O  1 XX    0.000000   0.000000   0.004007  -0.000001  -0.004188
   19  O  1 YY    0.000000   0.000000  -0.000631   0.000000  -0.000727
   20  O  1 ZZ    0.000000   0.000000  -0.003377   0.000001   0.004915
   21  O  1 XY    0.000000   0.003798   0.000001  -0.001193   0.000004
   22  O  1 XZ    0.000000   0.000000   0.000000   0.000000   0.000000
   23  O  1 YZ    0.000887   0.000000   0.000000   0.000000   0.000000
   24  O  1 XX    0.000000  -0.000007   0.021600  -0.000001   0.008761
   25  O  1 YY    0.000000  -0.000003   0.000598   0.000000   0.005801
   26  O  1 ZZ    0.000000   0.000010  -0.022199   0.000000  -0.014562
   27  O  1 XY    0.000000   0.034263   0.000004   0.012221   0.000005
   28  O  1 XZ   -0.000001   0.000000   0.000000   0.000000   0.000000
   29  O  1 YZ    0.029590   0.000000   0.000000   0.000000   0.000000
   30  O  1 XX    0.000000  -0.000122   0.146246   0.000010   0.144198
   31  O  1 YY    0.000000  -0.000011  -0.053413   0.000022   0.030817
   32  O  1 ZZ    0.000000   0.000134  -0.092834  -0.000032  -0.175015
   33  O  1 XY    0.000000   0.569220  -0.000032  -0.010789  -0.000346
   34  O  1 XZ    0.000002   0.000000   0.000000   0.000000   0.000000
   35  O  1 YZ   -0.038983   0.000000   0.000000   0.000000   0.000000
   36  O  1 XXX   0.000000   0.000749  -0.000002  -0.008195  -0.000005
   37  O  1 YYY   0.000000   0.000004  -0.003948  -0.000001  -0.008306
   38  O  1 ZZZ  -0.003453   0.000000   0.000000   0.000000   0.000000
   39  O  1 XXY   0.000000  -0.000012   0.009281   0.000002   0.022608
   40  O  1 XXZ   0.001280   0.000000   0.000000   0.000000   0.000000
   41  O  1 YYX   0.000000   0.013161   0.000002   0.011087  -0.000003
   42  O  1 YYZ   0.003352   0.000000   0.000000   0.000000   0.000000
   43  O  1 ZZX   0.000000  -0.014165   0.000001  -0.000093   0.000009
   44  O  1 ZZY   0.000000   0.000006  -0.003985  -0.000001  -0.011465
   45  O  1 XYZ   0.000000   0.000000   0.000000   0.000000   0.000000
   46  H  2  S    0.000000  -0.130335   0.121381   0.020934  -0.040995
   47  H  2  S    0.000000   0.606466   1.042116   0.339210  -2.208572
   48  H  2  S    0.000000   7.974849  -6.054455  -0.207075  -5.723247
   49  H  2  S    0.000000  -1.192879   0.395632   0.868951  -0.309701
   50  H  2  X    0.000000  -0.001481  -0.005539  -0.011515   0.004450
   51  H  2  Y    0.000000  -0.000219   0.001379  -0.010262   0.000646
   52  H  2  Z    0.012348   0.000000   0.000000   0.000000   0.000000
   53  H  2  X    0.000000   0.049616  -0.021438   0.046111  -0.110737
   54  H  2  Y    0.000000  -0.077494   0.008219   0.039930   0.050549
   55  H  2  Z   -0.030296   0.000000   0.000000   0.000000   0.000000
   56  H  2  X    0.000000   1.722802  -0.808345  -1.425770  -2.258796
   57  H  2  Y    0.000000  -1.445964   0.788595  -1.186117   1.701010
   58  H  2  Z    1.195810   0.000000   0.000000   0.000000   0.000000
   59  H  3  S    0.000000   0.130313   0.121410  -0.020972  -0.040893
   60  H  3  S    0.000000  -0.605616   1.042654  -0.339996  -2.204726
   61  H  3  S    0.000000  -7.973527  -6.054730   0.208095  -5.716888
   62  H  3  S    0.000000   1.192796   0.395575  -0.869097  -0.309821
   63  H  3  X    0.000000  -0.001476   0.005536  -0.011519  -0.004448
   64  H  3  Y    0.000000   0.000221   0.001384   0.010261   0.000651
   65  H  3  Z    0.012347   0.000000   0.000000   0.000000   0.000000
   66  H  3  X    0.000000   0.049511   0.021435   0.046149   0.110630
   67  H  3  Y    0.000000   0.077427   0.008197  -0.039910   0.050461
   68  H  3  Z   -0.030297   0.000000   0.000000   0.000000   0.000000
   69  H  3  X    0.000000   1.722180   0.807662  -1.425647   2.255671
   70  H  3  Y    0.000000   1.445296   0.788790   1.186156   1.698671
   71  H  3  Z    1.195784   0.000000   0.000000   0.000000   0.000000

                     21         22         23         24         25
                    0.7247     0.8761     0.8858     0.9578     0.9790
                     A          A          A          A          A   
    1  O  1  S    0.000024  -0.011752   0.000000   0.000000   0.036112
    2  O  1  S    0.000039  -0.021465   0.000000   0.000000   0.064530
    3  O  1  X   -0.149883   0.000014   0.000000   0.000000  -0.000015
    4  O  1  Y   -0.000036   0.152133   0.000000   0.000000   0.083864
    5  O  1  Z    0.000000   0.000000   0.146688  -0.000002   0.000000
    6  O  1  S   -0.000130   0.116364   0.000000   0.000000  -0.227910
    7  O  1  X   -0.211790   0.000019   0.000000   0.000000  -0.000023
    8  O  1  Y   -0.000040   0.425615   0.000000   0.000000   0.219179
    9  O  1  Z    0.000000   0.000000   0.410180  -0.000007   0.000000
   10  O  1  S   -0.002135   0.380276   0.000000   0.000000  -2.068841
   11  O  1  X   -4.143892   0.000214   0.000000   0.000000   0.000124
   12  O  1  Y   -0.000423  -0.333022   0.000000   0.000000  -1.777625
   13  O  1  Z    0.000000   0.000000  -0.411680   0.000014   0.000000
   14  O  1  S   -0.005197   3.891831   0.000000   0.000000  -1.209646
   15  O  1  X   -2.456118   0.000294   0.000000   0.000000  -0.000241
   16  O  1  Y   -0.001147   1.608246   0.000000   0.000000   0.573125
   17  O  1  Z    0.000000   0.000000   0.930656  -0.000003   0.000000
   18  O  1 XX    0.000002   0.005557   0.000000   0.000000  -0.013501
   19  O  1 YY    0.000002   0.009183   0.000000   0.000000   0.010556
   20  O  1 ZZ   -0.000003  -0.014740   0.000000   0.000000   0.002945
   21  O  1 XY    0.006690  -0.000001   0.000000   0.000000   0.000000
   22  O  1 XZ    0.000000   0.000000   0.000000   0.018468   0.000000
   23  O  1 YZ    0.000000   0.000000   0.015444   0.000000   0.000000
   24  O  1 XX    0.000005  -0.002897   0.000000   0.000000  -0.024347
   25  O  1 YY   -0.000003   0.005078   0.000000   0.000000   0.012150
   26  O  1 ZZ   -0.000002  -0.002181   0.000000   0.000000   0.012198
   27  O  1 XY    0.011835  -0.000003   0.000000   0.000000   0.000005
   28  O  1 XZ    0.000000   0.000000   0.000000   0.006248   0.000000
   29  O  1 YZ    0.000000   0.000000   0.003842   0.000000   0.000000
   30  O  1 XX    0.000154   0.471318   0.000000   0.000000  -1.500926
   31  O  1 YY    0.000094   0.548932   0.000000   0.000000   0.719067
   32  O  1 ZZ   -0.000248  -1.020250   0.000000   0.000000   0.781859
   33  O  1 XY   -0.615686  -0.000017   0.000000   0.000000   0.000109
   34  O  1 XZ    0.000000   0.000000  -0.000003   1.427356   0.000000
   35  O  1 YZ    0.000000   0.000000   1.036890   0.000011   0.000000
   36  O  1 XXX  -0.009567   0.000001   0.000000   0.000000   0.000000
   37  O  1 YYY  -0.000002   0.003144   0.000000   0.000000   0.015669
   38  O  1 ZZZ   0.000000   0.000000  -0.005097   0.000000   0.000000
   39  O  1 XXY   0.000006   0.002790   0.000000   0.000000  -0.033284
   40  O  1 XXZ   0.000000   0.000000  -0.001555   0.000000   0.000000
   41  O  1 YYX  -0.005681  -0.000001   0.000000   0.000000   0.000001
   42  O  1 YYZ   0.000000   0.000000   0.008393   0.000000   0.000000
   43  O  1 ZZX   0.018517   0.000000   0.000000   0.000000  -0.000002
   44  O  1 ZZY  -0.000004  -0.007007   0.000000   0.000000   0.012262
   45  O  1 XYZ   0.000000   0.000000   0.000000   0.009683   0.000000
   46  H  2  S   -0.081964   0.025973   0.000000   0.000000  -0.010091
   47  H  2  S   -3.322299  -0.719533   0.000000   0.000000   2.173161
   48  H  2  S   -7.647097  -1.721825   0.000000   0.000000  -0.070895
   49  H  2  S    0.400690  -0.216760   0.000000   0.000000   0.217725
   50  H  2  X   -0.000992   0.000484   0.000000   0.000000  -0.009554
   51  H  2  Y   -0.004697  -0.002793   0.000000   0.000000   0.010931
   52  H  2  Z    0.000000   0.000000   0.002066  -0.006666   0.000000
   53  H  2  X   -0.077646   0.034184   0.000000   0.000000   0.168349
   54  H  2  Y    0.079694  -0.003615   0.000000   0.000000  -0.078342
   55  H  2  Z    0.000000   0.000000   0.005128  -0.002128   0.000000
   56  H  2  X   -3.407722  -0.230446   0.000000   0.000000  -0.101883
   57  H  2  Y    2.283304  -0.008316   0.000000   0.000000  -0.617201
   58  H  2  Z    0.000000   0.000000  -0.624776   0.950310   0.000000
   59  H  3  S    0.081999   0.025957   0.000000   0.000000  -0.010080
   60  H  3  S    3.322669  -0.719799   0.000000   0.000000   2.172869
   61  H  3  S    7.653715  -1.723526   0.000000   0.000000  -0.069693
   62  H  3  S   -0.400483  -0.216651   0.000000   0.000000   0.217669
   63  H  3  X   -0.001000  -0.000482   0.000000   0.000000   0.009551
   64  H  3  Y    0.004690  -0.002793   0.000000   0.000000   0.010928
   65  H  3  Z    0.000000   0.000000   0.002066   0.006666   0.000000
   66  H  3  X   -0.077580  -0.034194   0.000000   0.000000  -0.168309
   67  H  3  Y   -0.079623  -0.003621   0.000000   0.000000  -0.078311
   68  H  3  Z    0.000000   0.000000   0.005129   0.002129   0.000000
   69  H  3  X   -3.409814   0.231109   0.000000   0.000000   0.101475
   70  H  3  Y   -2.284992  -0.007907   0.000000   0.000000  -0.617417
   71  H  3  Z    0.000000   0.000000  -0.624775  -0.950317   0.000000

                     26         27         28         29         30
                    0.9828     1.0337     1.0458     1.4495     1.7488
                     A          A          A          A          A   
    1  O  1  S    0.000000  -0.023723   0.000000  -0.000014   0.000000
    2  O  1  S    0.000000  -0.041403   0.000000  -0.000029   0.000000
    3  O  1  X   -0.194298   0.000012   0.000000  -0.106188   0.000000
    4  O  1  Y    0.000002  -0.184570   0.000000  -0.000006   0.000000
    5  O  1  Z    0.000000   0.000000  -0.227076   0.000000   0.000000
    6  O  1  S    0.000004   0.071015   0.000000   0.000276   0.000000
    7  O  1  X   -0.584635   0.000015   0.000000  -0.411476   0.000000
    8  O  1  Y    0.000006  -0.533910   0.000000  -0.000057   0.000000
    9  O  1  Z    0.000000   0.000000  -0.746408   0.000000   0.000003
   10  O  1  S   -0.000011   2.305381   0.000000  -0.001304   0.000000
   11  O  1  X    1.412336  -0.000173   0.000000  10.973303   0.000000
   12  O  1  Y   -0.000025   3.037098   0.000000  -0.000224   0.000000
   13  O  1  Z    0.000000   0.000000   2.116606   0.000000  -0.000004
   14  O  1  S    0.000020   3.619016   0.000000  -0.000044   0.000000
   15  O  1  X   -0.829251   0.000216   0.000000   1.972595   0.000000
   16  O  1  Y   -0.000003   0.901201   0.000000   0.000018   0.000000
   17  O  1  Z    0.000000   0.000000   0.033112   0.000000   0.000006
   18  O  1 XX    0.000000  -0.008641   0.000000   0.000001   0.000000
   19  O  1 YY    0.000000   0.012175   0.000000   0.000000   0.000000
   20  O  1 ZZ    0.000000  -0.003534   0.000000  -0.000001   0.000000
   21  O  1 XY   -0.013724  -0.000001   0.000000   0.004226   0.000000
   22  O  1 XZ    0.000000   0.000000   0.000000   0.000000   0.002139
   23  O  1 YZ    0.000000   0.000000   0.009105   0.000000   0.000000
   24  O  1 XX    0.000000   0.014412   0.000000  -0.000006   0.000000
   25  O  1 YY    0.000000   0.007925   0.000000   0.000001   0.000000
   26  O  1 ZZ    0.000000  -0.022337   0.000000   0.000005   0.000000
   27  O  1 XY   -0.002627  -0.000006   0.000000   0.036936   0.000000
   28  O  1 XZ    0.000000   0.000000   0.000000   0.000000   0.081380
   29  O  1 YZ    0.000000   0.000000  -0.001326   0.000000   0.000002
   30  O  1 XX    0.000017  -0.316930   0.000000  -0.000128   0.000000
   31  O  1 YY   -0.000026   1.184836   0.000000   0.000069   0.000000
   32  O  1 ZZ    0.000010  -0.867906   0.000000   0.000059   0.000000
   33  O  1 XY   -0.850213  -0.000177   0.000000   4.229339   0.000000
   34  O  1 XZ    0.000000   0.000000  -0.000021   0.000000  -0.726677
   35  O  1 YZ    0.000000   0.000000   0.878851   0.000000  -0.000007
   36  O  1 XXX   0.005927   0.000001   0.000000  -0.001771   0.000000
   37  O  1 YYY   0.000000  -0.001711   0.000000   0.000005   0.000000
   38  O  1 ZZZ   0.000000   0.000000  -0.005270   0.000000   0.000000
   39  O  1 XXY   0.000000   0.021086   0.000000  -0.000012   0.000000
   40  O  1 XXZ   0.000000   0.000000   0.000380   0.000000   0.000001
   41  O  1 YYX  -0.005453  -0.000002   0.000000   0.039008   0.000000
   42  O  1 YYZ   0.000000   0.000000   0.006690   0.000000   0.000000
   43  O  1 ZZX  -0.002498   0.000002   0.000000  -0.036632   0.000000
   44  O  1 ZZY   0.000000  -0.018791   0.000000   0.000005   0.000000
   45  O  1 XYZ   0.000000   0.000000   0.000000   0.000000  -0.007897
   46  H  2  S    0.041103  -0.010313   0.000000   0.095313   0.000000
   47  H  2  S   -0.437634  -1.837283   0.000000   9.209151   0.000000
   48  H  2  S    0.502737  -1.657960   0.000000   6.729412   0.000000
   49  H  2  S   -0.889019  -0.134401   0.000000  -0.617331   0.000000
   50  H  2  X    0.001773   0.016902   0.000000  -0.028105   0.000000
   51  H  2  Y    0.003130  -0.001454   0.000000   0.020983   0.000000
   52  H  2  Z    0.000000   0.000000   0.007828   0.000000   0.053313
   53  H  2  X    0.060191  -0.191145   0.000000   0.510170   0.000000
   54  H  2  Y   -0.078549   0.134739   0.000000  -0.295244   0.000000
   55  H  2  Z    0.000000   0.000000  -0.046518   0.000000  -0.995253
   56  H  2  X   -0.123954  -0.833808   0.000000   3.055130   0.000000
   57  H  2  Y   -0.441450  -0.463169   0.000000  -2.626866   0.000000
   58  H  2  Z    0.000000   0.000000  -0.895373   0.000000   0.244401
   59  H  3  S   -0.041101  -0.010326   0.000000  -0.095322   0.000000
   60  H  3  S    0.437661  -1.836836   0.000000  -9.208225   0.000000
   61  H  3  S   -0.502762  -1.659130   0.000000  -6.729055   0.000000
   62  H  3  S    0.889016  -0.134311   0.000000   0.617277   0.000000
   63  H  3  X    0.001774  -0.016898   0.000000  -0.028105   0.000000
   64  H  3  Y   -0.003130  -0.001452   0.000000  -0.020980   0.000000
   65  H  3  Z    0.000000   0.000000   0.007827   0.000000  -0.053315
   66  H  3  X    0.060185   0.191096   0.000000   0.510092   0.000000
   67  H  3  Y    0.078545   0.134710   0.000000   0.295140   0.000000
   68  H  3  Z    0.000000   0.000000  -0.046514   0.000000   0.995276
   69  H  3  X   -0.123962   0.834184   0.000000   3.054835   0.000000
   70  H  3  Y    0.441480  -0.462949   0.000000   2.626621   0.000000
   71  H  3  Z    0.000000   0.000000  -0.895347   0.000000  -0.244413

                     31         32         33         34         35
                    1.8456     1.8677     1.8858     2.0792     2.2093
                     A          A          A          A          A   
    1  O  1  S    0.000000   0.103513   0.000045   0.056812   0.017331
    2  O  1  S    0.000000   0.218424   0.000096   0.115625   0.025816
    3  O  1  X    0.000000  -0.000009   0.007157  -0.000001  -0.000008
    4  O  1  Y    0.000000  -0.002333   0.000000  -0.037215  -0.145348
    5  O  1  Z   -0.063323   0.000000   0.000000   0.000000   0.000000
    6  O  1  S    0.000000  -2.411213  -0.001061  -1.175856  -0.179476
    7  O  1  X    0.000000  -0.000038  -0.067455  -0.000021  -0.000037
    8  O  1  Y    0.000000   0.054225   0.000016  -0.084247   0.125468
    9  O  1  Z   -0.054613   0.000000   0.000000   0.000000   0.000000
   10  O  1  S    0.000000  11.800285   0.005119   5.647949   2.679112
   11  O  1  X    0.000000  -0.000172   2.630982   0.000208   0.000075
   12  O  1  Y    0.000000   3.494522   0.001512   2.830944   0.624972
   13  O  1  Z   -0.557975   0.000000   0.000000   0.000000   0.000000
   14  O  1  S    0.000000   6.821746   0.003131   2.207962  -0.372935
   15  O  1  X    0.000000   0.000639  -0.523370   0.000106   0.000079
   16  O  1  Y    0.000000   1.517643   0.000705   0.294772  -0.253714
   17  O  1  Z    0.356334   0.000000   0.000000   0.000000   0.000000
   18  O  1 XX    0.000000  -0.002437  -0.000001  -0.000292  -0.005896
   19  O  1 YY    0.000000  -0.000282   0.000000  -0.000221  -0.000735
   20  O  1 ZZ    0.000000   0.002719   0.000001   0.000513   0.006632
   21  O  1 XY    0.000000   0.000000   0.002993   0.000001   0.000001
   22  O  1 XZ    0.000000   0.000000   0.000000   0.000000   0.000000
   23  O  1 YZ    0.001752   0.000000   0.000000   0.000000   0.000000
   24  O  1 XX    0.000000  -0.015404  -0.000012   0.145270   0.169045
   25  O  1 YY    0.000000   0.025272   0.000013  -0.064467   0.057996
   26  O  1 ZZ    0.000000  -0.009868  -0.000001  -0.080803  -0.227041
   27  O  1 XY    0.000000  -0.000036   0.059678  -0.000003   0.000003
   28  O  1 XZ   -0.000001   0.000000   0.000000   0.000000   0.000000
   29  O  1 YZ    0.078823   0.000000   0.000000   0.000000   0.000000
   30  O  1 XX    0.000000   1.402007   0.000633  -0.721854   0.444633
   31  O  1 YY    0.000000  -0.269823  -0.000134   1.207567  -0.492085
   32  O  1 ZZ    0.000000  -1.132183  -0.000499  -0.485713   0.047452
   33  O  1 XY    0.000000   0.000062   0.674261   0.000053   0.000007
   34  O  1 XZ    0.000016   0.000000   0.000000   0.000000   0.000000
   35  O  1 YZ   -0.528159   0.000000   0.000000   0.000000   0.000000
   36  O  1 XXX   0.000000  -0.000003   0.003130   0.000000  -0.000002
   37  O  1 YYY   0.000000  -0.006330  -0.000001  -0.024171  -0.035575
   38  O  1 ZZZ   0.000445   0.000000   0.000000   0.000000   0.000000
   39  O  1 XXY   0.000000   0.021140   0.000005   0.031039   0.108780
   40  O  1 XXZ  -0.000377   0.000000   0.000000   0.000000   0.000000
   41  O  1 YYX   0.000000   0.000002  -0.003534  -0.000001   0.000001
   42  O  1 YYZ  -0.000221   0.000000   0.000000   0.000000   0.000000
   43  O  1 ZZX   0.000000   0.000002  -0.000665   0.000001   0.000001
   44  O  1 ZZY   0.000000  -0.012647  -0.000004   0.001390  -0.061051
   45  O  1 XYZ   0.000001   0.000000   0.000000   0.000000   0.000000
   46  H  2  S    0.000000  -0.204322  -0.070280   0.318557   0.963748
   47  H  2  S    0.000000  -4.088700   2.253190  -2.698291  -2.454588
   48  H  2  S    0.000000  -5.040626   1.463735  -1.324332   0.832170
   49  H  2  S    0.000000   0.069855  -0.456746  -0.102219  -0.239919
   50  H  2  X    0.000000  -0.004103   0.019890   0.037874  -0.008339
   51  H  2  Y    0.000000  -0.022003   0.041251   0.043244  -0.024724
   52  H  2  Z   -0.054825   0.000000   0.000000   0.000000   0.000000
   53  H  2  X    0.000000  -0.099406  -0.563813  -0.673337   0.165654
   54  H  2  Y    0.000000   0.538368  -0.803104  -0.825954   0.480228
   55  H  2  Z    1.032752   0.000000   0.000000   0.000000   0.000000
   56  H  2  X    0.000000  -1.940232   1.591502  -1.010412  -0.395570
   57  H  2  Y    0.000000   1.498760  -0.038182   0.576864   0.337105
   58  H  2  Z   -0.311717   0.000000   0.000000   0.000000   0.000000
   59  H  3  S    0.000000  -0.204459   0.070068   0.318534   0.963783
   60  H  3  S    0.000000  -4.088164  -2.256653  -2.698557  -2.454680
   61  H  3  S    0.000000  -5.041689  -1.468340  -1.325008   0.831757
   62  H  3  S    0.000000   0.069646   0.456809  -0.102153  -0.239905
   63  H  3  X    0.000000   0.004085   0.019896  -0.037872   0.008341
   64  H  3  Y    0.000000  -0.021966  -0.041272   0.043242  -0.024722
   65  H  3  Z   -0.054823   0.000000   0.000000   0.000000   0.000000
   66  H  3  X    0.000000   0.099934  -0.563780   0.673301  -0.165727
   67  H  3  Y    0.000000   0.537641   0.803590  -0.825939   0.480167
   68  H  3  Z    1.032724   0.000000   0.000000   0.000000   0.000000
   69  H  3  X    0.000000   1.939700   1.593220   1.010678   0.395737
   70  H  3  Y    0.000000   1.499433   0.039524   0.577038   0.337229
   71  H  3  Z   -0.311717   0.000000   0.000000   0.000000   0.000000

                     36         37         38         39         40
                    2.2359     2.7129     2.7976     3.4064     3.4418
                     A          A          A          A          A   
    1  O  1  S   -0.000001  -0.019596  -0.000001   0.000000   0.000000
    2  O  1  S   -0.000002  -0.043207  -0.000002   0.000000   0.000000
    3  O  1  X    0.215890  -0.000014  -0.057335   0.000000   0.000000
    4  O  1  Y   -0.000002   0.148730  -0.000018   0.000000   0.000000
    5  O  1  Z    0.000000   0.000000   0.000000   0.055401  -0.000003
    6  O  1  S    0.000006  -0.345477   0.000144   0.000000   0.000000
    7  O  1  X    0.245785  -0.000163  -0.949458   0.000000   0.000000
    8  O  1  Y    0.000022   0.788387  -0.000100   0.000000   0.000000
    9  O  1  Z    0.000000   0.000000   0.000000  -0.001206   0.000000
   10  O  1  S    0.000172  10.435081  -0.001806   0.000000   0.000000
   11  O  1  X   -0.014212  -0.000835  -7.955295   0.000000   0.000000
   12  O  1  Y    0.000067   4.671166  -0.000830   0.000000   0.000000
   13  O  1  Z    0.000000   0.000000   0.000000  -0.215624   0.000008
   14  O  1  S   -0.000108   1.871358  -0.000595   0.000000   0.000000
   15  O  1  X   -0.329780   0.000097  -0.402518   0.000000   0.000000
   16  O  1  Y   -0.000040   0.131356  -0.000095   0.000000   0.000000
   17  O  1  Z    0.000000   0.000000   0.000000  -0.329601   0.000013
   18  O  1 XX   -0.000001  -0.019214   0.000002   0.000000   0.000000
   19  O  1 YY    0.000000  -0.001124   0.000000   0.000000   0.000000
   20  O  1 ZZ    0.000001   0.020338  -0.000003   0.000000   0.000000
   21  O  1 XY   -0.000366   0.000005   0.033708   0.000000   0.000000
   22  O  1 XZ    0.000000   0.000000   0.000000   0.000000   0.006147
   23  O  1 YZ    0.000000   0.000000   0.000000   0.006060   0.000000
   24  O  1 XX    0.000010  -0.037913   0.000007   0.000000   0.000000
   25  O  1 YY   -0.000001  -0.028985  -0.000002   0.000000   0.000000
   26  O  1 ZZ   -0.000009   0.066898  -0.000006   0.000000   0.000000
   27  O  1 XY   -0.294396  -0.000027  -0.219717   0.000000   0.000000
   28  O  1 XZ    0.000000   0.000000   0.000000   0.000034   1.167977
   29  O  1 YZ    0.000000   0.000000   0.000000   1.152668  -0.000034
   30  O  1 XX    0.000011   0.991039  -0.000157   0.000000   0.000000
   31  O  1 YY    0.000001   0.557229  -0.000103   0.000000   0.000000
   32  O  1 ZZ   -0.000012  -1.548269   0.000260   0.000000   0.000000
   33  O  1 XY    0.790428  -0.000329  -2.928448   0.000000   0.000000
   34  O  1 XZ    0.000000   0.000000   0.000000  -0.000021  -0.691215
   35  O  1 YZ    0.000000   0.000000   0.000000  -0.664637   0.000019
   36  O  1 XXX  -0.007404  -0.000001   0.002924   0.000000   0.000000
   37  O  1 YYY  -0.000003  -0.085135   0.000010   0.000000   0.000000
   38  O  1 ZZZ   0.000000   0.000000   0.000000  -0.004424   0.000000
   39  O  1 XXY   0.000007   0.159575  -0.000018   0.000000   0.000000
   40  O  1 XXZ   0.000000   0.000000   0.000000  -0.025445   0.000001
   41  O  1 YYX  -0.034228  -0.000011  -0.100530   0.000000   0.000000
   42  O  1 YYZ   0.000000   0.000000   0.000000   0.031381  -0.000001
   43  O  1 ZZX   0.044161   0.000013   0.096607   0.000000   0.000000
   44  O  1 ZZY  -0.000003  -0.045355   0.000005   0.000000   0.000000
   45  O  1 XYZ   0.000000   0.000000   0.000000   0.000000   0.001885
   46  H  2  S    0.880997   0.259364   0.647024   0.000000   0.000000
   47  H  2  S   -0.713863  -6.391402  -8.569169   0.000000   0.000000
   48  H  2  S   -0.620523  -0.764188  -2.139949   0.000000   0.000000
   49  H  2  S   -0.282053  -0.151332   0.059110   0.000000   0.000000
   50  H  2  X   -0.003279   0.070842   0.050234   0.000000   0.000000
   51  H  2  Y    0.014174  -0.027616  -0.048277   0.000000   0.000000
   52  H  2  Z    0.000000   0.000000   0.000000   0.021170  -0.030350
   53  H  2  X    0.273602  -1.779324  -1.440504   0.000000   0.000000
   54  H  2  Y   -0.407138   0.921268   1.252187   0.000000   0.000000
   55  H  2  Z    0.000000   0.000000   0.000000  -0.187819   0.219761
   56  H  2  X   -0.663422  -0.894552  -1.760604   0.000000   0.000000
   57  H  2  Y    0.624206   0.561877   1.335787   0.000000   0.000000
   58  H  2  Z    0.000000   0.000000   0.000000   0.410306  -0.414622
   59  H  3  S   -0.880923   0.259222  -0.647146   0.000000   0.000000
   60  H  3  S    0.713546  -6.389448   8.571259   0.000000   0.000000
   61  H  3  S    0.620709  -0.764471   2.140550   0.000000   0.000000
   62  H  3  S    0.282037  -0.151293  -0.059046   0.000000   0.000000
   63  H  3  X   -0.003282  -0.070827   0.050255   0.000000   0.000000
   64  H  3  Y   -0.014176  -0.027604   0.048286   0.000000   0.000000
   65  H  3  Z    0.000000   0.000000   0.000000   0.021171   0.030347
   66  H  3  X    0.273662   1.778896  -1.440998   0.000000   0.000000
   67  H  3  Y    0.407203   0.920935  -1.252467   0.000000   0.000000
   68  H  3  Z    0.000000   0.000000   0.000000  -0.187830  -0.219744
   69  H  3  X   -0.663408   0.894421  -1.761006   0.000000   0.000000
   70  H  3  Y   -0.624204   0.561756  -1.336072   0.000000   0.000000
   71  H  3  Z    0.000000   0.000000   0.000000   0.410330   0.414590

                     41         42         43         44         45
                    3.4437     3.6197     3.7789     4.8612     4.8912
                     A          A          A          A          A   
    1  O  1  S    0.002660  -0.014988   0.000001   0.000000   0.000000
    2  O  1  S    0.005489  -0.030159   0.000001   0.000000   0.000000
    3  O  1  X   -0.000001   0.000001   0.392801   0.000000   0.000000
    4  O  1  Y   -0.092841   0.262404  -0.000006   0.000000   0.000000
    5  O  1  Z    0.000000   0.000000   0.000000  -1.264199   0.116253
    6  O  1  S    0.015897   0.007616  -0.000012   0.000000   0.000000
    7  O  1  X    0.000003  -0.000003  -0.011725   0.000000   0.000000
    8  O  1  Y   -0.036880   0.091047   0.000000   0.000000   0.000000
    9  O  1  Z    0.000000   0.000000   0.000000   1.557855  -0.144695
   10  O  1  S   -0.752600   3.042216  -0.000015   0.000000   0.000000
   11  O  1  X    0.000036   0.000027   1.059512   0.000000   0.000000
   12  O  1  Y   -0.180952   1.500129  -0.000006   0.000000   0.000000
   13  O  1  Z    0.000000   0.000000   0.000000  -1.010630   0.078426
   14  O  1  S    1.389349  -0.530936   0.000036   0.000000   0.000000
   15  O  1  X    0.000008   0.000012  -0.477010   0.000000   0.000000
   16  O  1  Y    0.704777  -0.181621   0.000008   0.000000   0.000000
   17  O  1  Z    0.000000   0.000000   0.000000   0.139789  -0.002793
   18  O  1 XX    0.003035   0.003006   0.000000   0.000000   0.000000
   19  O  1 YY   -0.006307  -0.000557   0.000000   0.000000   0.000000
   20  O  1 ZZ    0.003272  -0.002449   0.000000   0.000000   0.000000
   21  O  1 XY    0.000000   0.000000   0.008946   0.000000   0.000000
   22  O  1 XZ    0.000000   0.000000   0.000000   0.000000   0.000000
   23  O  1 YZ    0.000000   0.000000   0.000000  -0.001007  -0.001947
   24  O  1 XX    0.442616   1.107236  -0.000023   0.000000   0.000000
   25  O  1 YY   -1.152336  -0.195361   0.000007   0.000000   0.000000
   26  O  1 ZZ    0.709721  -0.911875   0.000016   0.000000   0.000000
   27  O  1 XY    0.000004   0.000026   1.181660   0.000000   0.000000
   28  O  1 XZ    0.000000   0.000000   0.000000  -0.000001   0.000000
   29  O  1 YZ    0.000000   0.000000   0.000000   0.074622  -0.045339
   30  O  1 XX   -0.355768  -0.291394   0.000008   0.000000   0.000000
   31  O  1 YY    0.638609   0.298169  -0.000003   0.000000   0.000000
   32  O  1 ZZ   -0.282841  -0.006775  -0.000005   0.000000   0.000000
   33  O  1 XY    0.000009  -0.000002  -0.169659   0.000000   0.000000
   34  O  1 XZ    0.000000   0.000000   0.000000   0.000002   0.000000
   35  O  1 YZ    0.000000   0.000000   0.000000  -0.119372   0.008703
   36  O  1 XXX   0.000000   0.000001  -0.032763   0.000000   0.000000
   37  O  1 YYY  -0.025033   0.020965  -0.000001   0.000000   0.000000
   38  O  1 ZZZ   0.000000   0.000000   0.000000   0.045321  -0.276056
   39  O  1 XXY   0.023326  -0.059928   0.000003   0.000000   0.000000
   40  O  1 XXZ   0.000000   0.000000   0.000000  -0.124742  -0.642964
   41  O  1 YYX   0.000000  -0.000001  -0.046169   0.000000   0.000000
   42  O  1 YYZ   0.000000   0.000000   0.000000   0.063937   1.013332
   43  O  1 ZZX   0.000000   0.000000   0.090125   0.000000   0.000000
   44  O  1 ZZY   0.010259   0.031801  -0.000001   0.000000   0.000000
   45  O  1 XYZ   0.000000   0.000000   0.000000   0.000002  -0.000009
   46  H  2  S    0.053933  -0.223244   0.346594   0.000000   0.000000
   47  H  2  S    0.371016  -1.524912   0.535117   0.000000   0.000000
   48  H  2  S   -0.741109   0.149323  -0.358254   0.000000   0.000000
   49  H  2  S   -0.029279   0.043285  -0.246353   0.000000   0.000000
   50  H  2  X   -0.032507   0.037613  -0.071867   0.000000   0.000000
   51  H  2  Y   -0.015712  -0.057435   0.045854   0.000000   0.000000
   52  H  2  Z    0.000000   0.000000   0.000000   0.017260  -0.006969
   53  H  2  X    0.293690  -0.621348   0.583038   0.000000   0.000000
   54  H  2  Y    0.062520   0.533650  -0.366074   0.000000   0.000000
   55  H  2  Z    0.000000   0.000000   0.000000  -0.084851   0.036454
   56  H  2  X   -0.204312  -0.304712  -0.205707   0.000000   0.000000
   57  H  2  Y   -0.302596  -0.069952  -0.076289   0.000000   0.000000
   58  H  2  Z    0.000000   0.000000   0.000000   0.226539  -0.029496
   59  H  3  S    0.053938  -0.223244  -0.346573   0.000000   0.000000
   60  H  3  S    0.370944  -1.524949  -0.535106   0.000000   0.000000
   61  H  3  S   -0.741156   0.149256   0.358221   0.000000   0.000000
   62  H  3  S   -0.029278   0.043290   0.246348   0.000000   0.000000
   63  H  3  X    0.032507  -0.037615  -0.071865   0.000000   0.000000
   64  H  3  Y   -0.015711  -0.057437  -0.045853   0.000000   0.000000
   65  H  3  Z    0.000000   0.000000   0.000000   0.017260  -0.006969
   66  H  3  X   -0.293683   0.621365   0.583017   0.000000   0.000000
   67  H  3  Y    0.062518   0.533664   0.366067   0.000000   0.000000
   68  H  3  Z    0.000000   0.000000   0.000000  -0.084850   0.036454
   69  H  3  X    0.204336   0.304731  -0.205704   0.000000   0.000000
   70  H  3  Y   -0.302571  -0.069924   0.076294   0.000000   0.000000
   71  H  3  Z    0.000000   0.000000   0.000000   0.226536  -0.029496

                     46         47         48         49         50
                    5.0075     5.1250     5.1818     5.2147     5.2739
                     A          A          A          A          A   
    1  O  1  S   -0.010517  -0.009684   0.000000   0.000000   0.000000
    2  O  1  S   -0.021835  -0.019408   0.000000   0.000000   0.000000
    3  O  1  X    0.000004   0.000002   0.683494   0.000000   0.000000
    4  O  1  Y   -0.786733  -0.759447   0.000013   0.000000   0.000000
    5  O  1  Z    0.000000   0.000000   0.000000   0.102696   0.000008
    6  O  1  S    0.185458   0.074960  -0.000003   0.000000   0.000000
    7  O  1  X   -0.000010  -0.000009  -1.053186   0.000000   0.000000
    8  O  1  Y    1.119218   1.141818  -0.000019   0.000000   0.000000
    9  O  1  Z    0.000000   0.000000   0.000000  -0.136036  -0.000011
   10  O  1  S    0.162370   1.438985   0.000003   0.000000   0.000000
   11  O  1  X   -0.000028  -0.000043   2.709006   0.000000   0.000000
   12  O  1  Y   -0.659350   0.299605   0.000030   0.000000   0.000000
   13  O  1  Z    0.000000   0.000000   0.000000  -0.212857  -0.000010
   14  O  1  S   -0.788419  -0.405971   0.000025   0.000000   0.000000
   15  O  1  X   -0.000010  -0.000002   0.253726   0.000000   0.000000
   16  O  1  Y   -0.079196  -0.029945   0.000006   0.000000   0.000000
   17  O  1  Z    0.000000   0.000000   0.000000   0.062789   0.000003
   18  O  1 XX    0.002159   0.001111   0.000000   0.000000   0.000000
   19  O  1 YY   -0.000292  -0.002296   0.000000   0.000000   0.000000
   20  O  1 ZZ   -0.001867   0.001185   0.000000   0.000000   0.000000
   21  O  1 XY    0.000000   0.000000  -0.002650   0.000000   0.000000
   22  O  1 XZ    0.000000   0.000000   0.000000   0.000000  -0.000157
   23  O  1 YZ    0.000000   0.000000   0.000000  -0.000365   0.000000
   24  O  1 XX    0.082501   0.094612  -0.000001   0.000000   0.000000
   25  O  1 YY    0.056286   0.036213  -0.000001   0.000000   0.000000
   26  O  1 ZZ   -0.138786  -0.130825   0.000002   0.000000   0.000000
   27  O  1 XY   -0.000001  -0.000002  -0.159834   0.000000   0.000000
   28  O  1 XZ    0.000000   0.000000   0.000000   0.000000   0.036234
   29  O  1 YZ    0.000000   0.000000   0.000000  -0.035183  -0.000003
   30  O  1 XX    0.130775  -0.193463  -0.000008   0.000000   0.000000
   31  O  1 YY   -0.201661   0.316807   0.000012   0.000000   0.000000
   32  O  1 ZZ    0.070886  -0.123344  -0.000004   0.000000   0.000000
   33  O  1 XY   -0.000006  -0.000014   0.807130   0.000000   0.000000
   34  O  1 XZ    0.000000   0.000000   0.000000  -0.000009   0.300769
   35  O  1 YZ    0.000000   0.000000   0.000000  -0.206515  -0.000009
   36  O  1 XXX   0.000010  -0.000002   0.777488   0.000000   0.000000
   37  O  1 YYY  -0.500437   0.820943   0.000008   0.000000   0.000000
   38  O  1 ZZZ   0.000000   0.000000   0.000000   1.010008   0.000041
   39  O  1 XXY  -0.192466  -0.564890  -0.000002   0.000000   0.000000
   40  O  1 XXZ   0.000000   0.000000   0.000000  -0.928882  -0.000046
   41  O  1 YYX   0.000001   0.000003  -0.154472   0.000000   0.000000
   42  O  1 YYZ   0.000000   0.000000   0.000000  -0.426186  -0.000009
   43  O  1 ZZX  -0.000014  -0.000001  -0.888639   0.000000   0.000000
   44  O  1 ZZY   0.863873  -0.536522  -0.000009   0.000000   0.000000
   45  O  1 XYZ   0.000000   0.000000   0.000000  -0.000045   1.066599
   46  H  2  S    0.021593   0.052220  -0.009230   0.000000   0.000000
   47  H  2  S   -0.170300  -0.943986   1.756651   0.000000   0.000000
   48  H  2  S    0.448295   0.286081   1.684994   0.000000   0.000000
   49  H  2  S    0.004719  -0.023132  -0.319962   0.000000   0.000000
   50  H  2  X    0.021490   0.032667   0.057964   0.000000   0.000000
   51  H  2  Y   -0.012219   0.028151   0.006403   0.000000   0.000000
   52  H  2  Z    0.000000   0.000000   0.000000  -0.083876  -0.108830
   53  H  2  X   -0.159562  -0.562519  -0.218404   0.000000   0.000000
   54  H  2  Y    0.235270  -0.037312  -0.092701   0.000000   0.000000
   55  H  2  Z    0.000000   0.000000   0.000000   0.410205   0.448555
   56  H  2  X    0.132674  -0.055683   0.779482   0.000000   0.000000
   57  H  2  Y    0.040878   0.050719  -0.559924   0.000000   0.000000
   58  H  2  Z    0.000000   0.000000   0.000000  -0.046431  -0.045762
   59  H  3  S    0.021589   0.052214   0.009238   0.000000   0.000000
   60  H  3  S   -0.170236  -0.943896  -1.756663   0.000000   0.000000
   61  H  3  S    0.448349   0.286117  -1.685014   0.000000   0.000000
   62  H  3  S    0.004717  -0.023137   0.319958   0.000000   0.000000
   63  H  3  X   -0.021489  -0.032668   0.057964   0.000000   0.000000
   64  H  3  Y   -0.012220   0.028151  -0.006400   0.000000   0.000000
   65  H  3  Z    0.000000   0.000000   0.000000  -0.083882   0.108821
   66  H  3  X    0.159549   0.562511  -0.218401   0.000000   0.000000
   67  H  3  Y    0.235267  -0.037321   0.092693   0.000000   0.000000
   68  H  3  Z    0.000000   0.000000   0.000000   0.410235  -0.448514
   69  H  3  X   -0.132699   0.055656   0.779492   0.000000   0.000000
   70  H  3  Y    0.040854   0.050704   0.559935   0.000000   0.000000
   71  H  3  Z    0.000000   0.000000   0.000000  -0.046435   0.045758

                     51         52         53         54         55
                    5.3504     5.9462     6.1050     8.1230     8.1305
                     A          A          A          A          A   
    1  O  1  S    0.000000  -0.000001  -0.001154   0.000000   0.000000
    2  O  1  S    0.000000  -0.000001  -0.007046   0.000000   0.000000
    3  O  1  X    0.592532   0.836429   0.000048   0.000000   0.000000
    4  O  1  Y    0.000012   0.000025  -0.622666   0.000000   0.000000
    5  O  1  Z    0.000000   0.000000   0.000000   0.029258   0.000009
    6  O  1  S    0.000002   0.000036  -0.461058   0.000000   0.000000
    7  O  1  X   -1.000693  -1.674421  -0.000101   0.000000   0.000000
    8  O  1  Y   -0.000017  -0.000048   1.278562   0.000000   0.000000
    9  O  1  Z    0.000000   0.000000   0.000000   0.030267   0.000007
   10  O  1  S   -0.000005  -0.000270   6.781805   0.000000   0.000000
   11  O  1  X    0.700052  -3.389945  -0.000031   0.000000   0.000000
   12  O  1  Y    0.000002  -0.000122   2.391722   0.000000   0.000000
   13  O  1  Z    0.000000   0.000000   0.000000   0.136565   0.000040
   14  O  1  S    0.000007  -0.000088   1.732412   0.000000   0.000000
   15  O  1  X    0.424518  -0.257074   0.000037   0.000000   0.000000
   16  O  1  Y    0.000003  -0.000019   0.345854   0.000000   0.000000
   17  O  1  Z    0.000000   0.000000   0.000000  -0.181565  -0.000051
   18  O  1 XX    0.000000   0.000000   0.016184   0.000000   0.000000
   19  O  1 YY    0.000000   0.000000   0.001916   0.000000   0.000000
   20  O  1 ZZ    0.000000   0.000000  -0.018100   0.000000   0.000000
   21  O  1 XY   -0.001886  -0.023043  -0.000002   0.000000   0.000000
   22  O  1 XZ    0.000000   0.000000   0.000000  -0.000008   0.031030
   23  O  1 YZ    0.000000   0.000000   0.000000  -0.021312  -0.000006
   24  O  1 XX    0.000002  -0.000005   0.273148   0.000000   0.000000
   25  O  1 YY   -0.000003  -0.000005   0.039346   0.000000   0.000000
   26  O  1 ZZ    0.000001   0.000010  -0.312494   0.000000   0.000000
   27  O  1 XY   -0.171666  -0.494137  -0.000025   0.000000   0.000000
   28  O  1 XZ    0.000000   0.000000   0.000000   0.000007  -0.019506
   29  O  1 YZ    0.000000   0.000000   0.000000   0.022459   0.000005
   30  O  1 XX    0.000004  -0.000027   0.795590   0.000000   0.000000
   31  O  1 YY   -0.000005  -0.000017   0.120519   0.000000   0.000000
   32  O  1 ZZ    0.000001   0.000044  -0.916109   0.000000   0.000000
   33  O  1 XY    0.262810  -1.708191  -0.000031   0.000000   0.000000
   34  O  1 XZ    0.000000   0.000000   0.000000   0.000028  -0.104835
   35  O  1 YZ    0.000000   0.000000   0.000000   0.095779   0.000027
   36  O  1 XXX  -0.719664  -0.153158  -0.000013   0.000000   0.000000
   37  O  1 YYY   0.000002   0.000015  -0.384071   0.000000   0.000000
   38  O  1 ZZZ   0.000000   0.000000   0.000000   0.091663   0.000029
   39  O  1 XXY  -0.000011  -0.000048   1.030976   0.000000   0.000000
   40  O  1 XXZ   0.000000   0.000000   0.000000  -0.088860  -0.000029
   41  O  1 YYX   1.030192  -0.575371  -0.000013   0.000000   0.000000
   42  O  1 YYZ   0.000000   0.000000   0.000000  -0.034119  -0.000010
   43  O  1 ZZX  -0.064662   0.780853   0.000030   0.000000   0.000000
   44  O  1 ZZY   0.000008   0.000029  -0.515690   0.000000   0.000000
   45  O  1 XYZ   0.000000   0.000000   0.000000  -0.000036   0.144253
   46  H  2  S    0.039733  -0.534264  -0.570428   0.000000   0.000000
   47  H  2  S    0.084380  -3.570055  -3.232450   0.000000   0.000000
   48  H  2  S    0.854091  -0.771459  -1.222807   0.000000   0.000000
   49  H  2  S   -0.084634   0.027409   0.003292   0.000000   0.000000
   50  H  2  X   -0.049171   0.213881   0.173972   0.000000   0.000000
   51  H  2  Y   -0.113325  -0.112560  -0.193266   0.000000   0.000000
   52  H  2  Z    0.000000   0.000000   0.000000   0.904911   0.898510
   53  H  2  X    0.039948  -1.004646  -0.995804   0.000000   0.000000
   54  H  2  Y    0.537539   0.750252   0.758048   0.000000   0.000000
   55  H  2  Z    0.000000   0.000000   0.000000  -0.663347  -0.611477
   56  H  2  X    0.032194  -0.474099  -0.609053   0.000000   0.000000
   57  H  2  Y   -0.397504   0.419851   0.438680   0.000000   0.000000
   58  H  2  Z    0.000000   0.000000   0.000000   0.208566   0.186205
   59  H  3  S   -0.039732   0.534300  -0.570357   0.000000   0.000000
   60  H  3  S   -0.084375   3.570318  -3.232327   0.000000   0.000000
   61  H  3  S   -0.854099   0.771571  -1.223025   0.000000   0.000000
   62  H  3  S    0.084633  -0.027407   0.003309   0.000000   0.000000
   63  H  3  X   -0.049170   0.213898  -0.173950   0.000000   0.000000
   64  H  3  Y    0.113322   0.112581  -0.193257   0.000000   0.000000
   65  H  3  Z    0.000000   0.000000   0.000000   0.905413  -0.898004
   66  H  3  X    0.039940  -1.004724   0.995716   0.000000   0.000000
   67  H  3  Y   -0.537528  -0.750329   0.758001   0.000000   0.000000
   68  H  3  Z    0.000000   0.000000   0.000000  -0.663692   0.611108
   69  H  3  X    0.032195  -0.474151   0.609129   0.000000   0.000000
   70  H  3  Y    0.397508  -0.419894   0.438733   0.000000   0.000000
   71  H  3  Z    0.000000   0.000000   0.000000   0.208672  -0.186091

                     56         57         58         59         60
                    8.1672     8.2940     9.4269     9.4724    14.1757
                     A          A          A          A          A   
    1  O  1  S    0.003855   0.000000  -0.022560  -0.000010   0.000000
    2  O  1  S    0.002003   0.000000   0.002923   0.000000   0.000000
    3  O  1  X    0.000001   0.053638  -0.000128   0.330597   0.000000
    4  O  1  Y    0.015992   0.000002  -0.245001  -0.000100   0.000000
    5  O  1  Z    0.000000   0.000000   0.000000   0.000000   0.011532
    6  O  1  S   -0.091394  -0.000002  -0.278921  -0.000116   0.000000
    7  O  1  X   -0.000004  -0.000666   0.000131  -0.358067   0.000000
    8  O  1  Y    0.090149   0.000000   0.244063   0.000106   0.000000
    9  O  1  Z    0.000000   0.000000   0.000000   0.000000  -0.037976
   10  O  1  S    1.270274   0.000020  -0.215277  -0.000050   0.000000
   11  O  1  X   -0.000015   1.031116  -0.000525   1.398250   0.000000
   12  O  1  Y    0.877743   0.000022  -0.459725  -0.000165   0.000000
   13  O  1  Z    0.000000   0.000000   0.000000   0.000000   0.109389
   14  O  1  S   -0.060286   0.000003   0.907501   0.000390   0.000000
   15  O  1  X    0.000008  -0.263758   0.000046  -0.101029   0.000000
   16  O  1  Y   -0.160830  -0.000003   0.266042   0.000113   0.000000
   17  O  1  Z    0.000000   0.000000   0.000000   0.000000   0.101179
   18  O  1 XX    0.035688   0.000001   0.103389   0.000043   0.000000
   19  O  1 YY   -0.036021  -0.000001   0.006000   0.000001   0.000000
   20  O  1 ZZ    0.000333   0.000000  -0.109389  -0.000044   0.000000
   21  O  1 XY    0.000000  -0.002620   0.000074  -0.184998   0.000000
   22  O  1 XZ    0.000000   0.000000   0.000000   0.000000   0.000041
   23  O  1 YZ    0.000000   0.000000   0.000000   0.000000   1.147077
   24  O  1 XX    0.003790   0.000002   0.165236   0.000074   0.000000
   25  O  1 YY    0.009036  -0.000002   0.026137   0.000009   0.000000
   26  O  1 ZZ   -0.012826   0.000000  -0.191373  -0.000083   0.000000
   27  O  1 XY    0.000001  -0.050787   0.000115  -0.308377   0.000000
   28  O  1 XZ    0.000000   0.000000   0.000000   0.000000  -0.000023
   29  O  1 YZ    0.000000   0.000000   0.000000   0.000000  -0.650610
   30  O  1 XX   -0.205759  -0.000005   0.005009   0.000003   0.000000
   31  O  1 YY    0.401915   0.000010  -0.090282  -0.000032   0.000000
   32  O  1 ZZ   -0.196156  -0.000005   0.085273   0.000029   0.000000
   33  O  1 XY   -0.000009   0.368991  -0.000163   0.431777   0.000000
   34  O  1 XZ    0.000000   0.000000   0.000000   0.000000   0.000009
   35  O  1 YZ    0.000000   0.000000   0.000000   0.000000   0.254066
   36  O  1 XXX  -0.000002  -0.139321  -0.000009   0.002249   0.000000
   37  O  1 YYY  -0.011609   0.000000  -0.302623  -0.000127   0.000000
[...]
   55  H  2  Z    0.000000   0.000000   0.000000   0.000000   0.021063
   56  H  2  X   -0.004174  -0.017401   0.012426   0.007902   0.000000
   57  H  2  Y    0.003236   0.012863  -0.008956   0.008422   0.000000
   58  H  2  Z    0.000000   0.000000   0.000000   0.000000   0.016690
   59  H  3  S    0.000270   0.099527   0.154725   0.089039   0.000000
   60  H  3  S   -0.006749   0.032849   0.159522   0.132498   0.000000
   61  H  3  S   -0.010632  -0.041458   0.034821   0.074891   0.000000
   62  H  3  S    0.000337   0.003270   0.011593   0.003000   0.000000
   63  H  3  X   -0.000099  -0.004272  -0.002457  -0.002536   0.000000
   64  H  3  Y   -0.000038  -0.002713  -0.003563   0.001356   0.000000
   65  H  3  Z    0.000000   0.000000   0.000000   0.000000   0.003616
   66  H  3  X    0.000003  -0.009577  -0.006727  -0.014766   0.000000
   67  H  3  Y   -0.000224  -0.005824  -0.014977   0.005693   0.000000
   68  H  3  Z    0.000000   0.000000   0.000000   0.000000   0.021063
   69  H  3  X    0.004174   0.017357   0.012473  -0.007935   0.000000
   70  H  3  Y    0.003236   0.012829   0.008986   0.008395   0.000000
   71  H  3  Z    0.000000   0.000000   0.000000   0.000000   0.016690

                      6          7          8          9         10
                   -0.0380     0.0183     0.1181     0.1272     0.1339
                     A          A          A          A          A   
    1  O  1  S    0.033055   0.000000   0.026303   0.000001   0.000000
    2  O  1  S    0.054298  -0.000001   0.042710   0.000002   0.000000
    3  O  1  X    0.000002   0.103505   0.000006  -0.129222   0.000000
    4  O  1  Y   -0.083681   0.000002  -0.136691  -0.000015   0.000000
    5  O  1  Z    0.000000   0.000000   0.000000   0.000000   0.145593
    6  O  1  S   -0.183788   0.000012  -0.139542  -0.000037   0.000000
    7  O  1  X    0.000001   0.156473   0.000007  -0.159232   0.000000
    8  O  1  Y   -0.123498   0.000001  -0.183865  -0.000019   0.000000
    9  O  1  Z    0.000000   0.000000   0.000000   0.000000   0.163789
   10  O  1  S   -0.359578  -0.000100  -0.334949   0.000399   0.000000
   11  O  1  X    0.000042   0.105442   0.000047  -0.765210   0.000000
   12  O  1  Y   -0.203491  -0.000046  -0.241202   0.000141   0.000000
   13  O  1  Z    0.000000   0.000000   0.000000   0.000000   0.461907
   14  O  1  S   -0.815453  -0.000216  -0.841951   0.002057   0.000000
   15  O  1  X    0.000050   0.396499   0.000083  -1.764130   0.000000
   16  O  1  Y   -0.135391  -0.000054  -0.135025   0.000711   0.000000
   17  O  1  Z    0.000000   0.000000   0.000000   0.000000  -1.278448
   18  O  1 XX    0.000459   0.000000   0.000884   0.000000   0.000000
   19  O  1 YY   -0.000299   0.000000  -0.000128   0.000000   0.000000
   20  O  1 ZZ   -0.000160   0.000000  -0.000756   0.000000   0.000000
   21  O  1 XY    0.000000   0.000270   0.000000   0.001173   0.000000
   22  O  1 XZ    0.000000   0.000000   0.000000   0.000000   0.000000
   23  O  1 YZ    0.000000   0.000000   0.000000   0.000000  -0.000477
   24  O  1 XX    0.002533  -0.000001   0.010922   0.000000   0.000000
   25  O  1 YY   -0.003533   0.000000  -0.007922  -0.000002   0.000000
   26  O  1 ZZ    0.000999   0.000000  -0.003000   0.000002   0.000000
   27  O  1 XY    0.000000  -0.001425   0.000000   0.018394   0.000000
   28  O  1 XZ    0.000000   0.000000   0.000000   0.000000   0.000000
   29  O  1 YZ    0.000000   0.000000   0.000000   0.000000   0.011115
   30  O  1 XX   -0.000847  -0.000010   0.036011   0.000032   0.000000
   31  O  1 YY   -0.012755  -0.000004   0.012108   0.000017   0.000000
   32  O  1 ZZ    0.013602   0.000014  -0.048119  -0.000049   0.000000
   33  O  1 XY    0.000009  -0.001584   0.000007  -0.098827   0.000000
   34  O  1 XZ    0.000000   0.000000   0.000000   0.000000   0.000000
   35  O  1 YZ    0.000000   0.000000   0.000000   0.000000  -0.026482
   36  O  1 XXX   0.000000   0.001105   0.000000  -0.003123   0.000000
   37  O  1 YYY   0.000182   0.000001  -0.000791  -0.000001   0.000000
   38  O  1 ZZZ   0.000000   0.000000   0.000000   0.000000  -0.003559
   39  O  1 XXY  -0.001817  -0.000001   0.000920   0.000003   0.000000
   40  O  1 XXZ   0.000000   0.000000   0.000000   0.000000   0.003407
   41  O  1 YYX   0.000000  -0.000565   0.000000   0.000423   0.000000
   42  O  1 YYZ   0.000000   0.000000   0.000000   0.000000   0.001368
   43  O  1 ZZX   0.000000  -0.000918   0.000000   0.003767   0.000000
   44  O  1 ZZY   0.001573   0.000001   0.000142  -0.000001   0.000000
   45  O  1 XYZ   0.000000   0.000000   0.000000   0.000000   0.000000
   46  H  2  S    0.025626   0.011020   0.075302  -0.089685   0.000000
   47  H  2  S    0.146257   0.036958  -0.031506  -0.415017   0.000000
   48  H  2  S    0.437974   0.278814   1.593832  -3.659243   0.000000
   49  H  2  S    0.525020   1.936938  -0.863561   1.489034   0.000000
   50  H  2  X   -0.003329  -0.001709  -0.003681   0.001408   0.000000
   51  H  2  Y    0.001557   0.001309   0.001430  -0.003912   0.000000
   52  H  2  Z    0.000000   0.000000   0.000000   0.000000   0.002322
   53  H  2  X   -0.010706  -0.011387  -0.025934   0.003019   0.000000
   54  H  2  Y    0.006834   0.016317   0.013123  -0.007040   0.000000
   55  H  2  Z    0.000000   0.000000   0.000000   0.000000  -0.017377
   56  H  2  X    0.003885  -0.083834  -0.082991  -0.379495   0.000000
   57  H  2  Y    0.012132   0.026954   0.039291   0.171126   0.000000
   58  H  2  Z    0.000000   0.000000   0.000000   0.000000   0.059862
   59  H  3  S    0.025627  -0.011020   0.075295   0.089681   0.000000
   60  H  3  S    0.146204  -0.036863  -0.031558   0.414710   0.000000
   61  H  3  S    0.437759  -0.278582   1.593463   3.656970   0.000000
   62  H  3  S    0.525015  -1.936927  -0.863442  -1.489164   0.000000
   63  H  3  X    0.003329  -0.001709   0.003681   0.001408   0.000000
   64  H  3  Y    0.001557  -0.001309   0.001429   0.003912   0.000000
   65  H  3  Z    0.000000   0.000000   0.000000   0.000000   0.002322
   66  H  3  X    0.010708  -0.011399   0.025934   0.003045   0.000000
   67  H  3  Y    0.006836  -0.016325   0.013124   0.007062   0.000000
   68  H  3  Z    0.000000   0.000000   0.000000   0.000000  -0.017377
   69  H  3  X   -0.003824  -0.083888   0.083054  -0.379189   0.000000
   70  H  3  Y    0.012172  -0.026990   0.039321  -0.170934   0.000000
   71  H  3  Z    0.000000   0.000000   0.000000   0.000000   0.059861

                     11         12         13         14         15
                    0.1358     0.1883     0.1993     0.3049     0.3281
                     A          A          A          A          A   
    1  O  1  S   -0.029344   0.022409   0.000013  -0.004716   0.000000
    2  O  1  S   -0.047913   0.038819   0.000022  -0.008191   0.000000
    3  O  1  X    0.000015   0.000095  -0.127242  -0.000002   0.000000
    4  O  1  Y   -0.075439   0.007339   0.000004  -0.043943   0.000000
    5  O  1  Z    0.000000   0.000000   0.000000   0.000000   0.000000
    6  O  1  S    0.174397  -0.205309  -0.000096   0.051179   0.000000
    7  O  1  X    0.000020   0.000138  -0.170709  -0.000013   0.000000
    8  O  1  Y   -0.071676  -0.021243  -0.000016  -0.020761   0.000000
    9  O  1  Z    0.000000   0.000000   0.000000   0.000000   0.000000
   10  O  1  S    0.115566   0.898609   0.000226  -0.303815   0.000000
   11  O  1  X    0.000038  -0.000391  -0.051606   0.000334   0.000000
   12  O  1  Y   -0.492625   0.682540   0.000265  -0.672672   0.000000
   13  O  1  Z    0.000000   0.000000   0.000000   0.000000   0.000000
   14  O  1  S    1.499648  11.472588   0.006499  -4.561466   0.000000
   15  O  1  X    0.000128  -0.002027   3.090202   0.000189   0.000000
   16  O  1  Y    1.867397   3.069298   0.001757  -2.169298   0.000000
   17  O  1  Z    0.000000   0.000000   0.000000   0.000000  -0.000001
   18  O  1 XX   -0.000604  -0.000397   0.000000   0.000771   0.000000
   19  O  1 YY    0.000579   0.000264   0.000000  -0.000149   0.000000
   20  O  1 ZZ    0.000025   0.000133   0.000000  -0.000623   0.000000
   21  O  1 XY    0.000000   0.000000   0.000194   0.000000   0.000000
   22  O  1 XZ    0.000000   0.000000   0.000000   0.000000   0.000391
   23  O  1 YZ    0.000000   0.000000   0.000000   0.000000   0.000000
   24  O  1 XX   -0.006129  -0.014980  -0.000012  -0.038502   0.000000
   25  O  1 YY   -0.007229   0.000313   0.000001   0.038914   0.000000
   26  O  1 ZZ    0.013358   0.014668   0.000011  -0.000412   0.000000
   27  O  1 XY   -0.000002   0.000004  -0.016962   0.000003   0.000000
   28  O  1 XZ    0.000000   0.000000   0.000000   0.000000   0.038733
   29  O  1 YZ    0.000000   0.000000   0.000000   0.000000   0.000000
   30  O  1 XX   -0.052102   0.112584   0.000042   0.130241   0.000000
   31  O  1 YY    0.008779   0.028927   0.000004  -0.152676   0.000000
   32  O  1 ZZ    0.043323  -0.141511  -0.000046   0.022435   0.000000
   33  O  1 XY   -0.000003  -0.000189   0.108728   0.000089   0.000000
   34  O  1 XZ    0.000000   0.000000   0.000000   0.000000  -0.081209
   35  O  1 YZ    0.000000   0.000000   0.000000   0.000000   0.000000
   36  O  1 XXX   0.000000   0.000001  -0.002830   0.000001   0.000000
   37  O  1 YYY   0.001126  -0.002583   0.000000   0.003318   0.000000
   38  O  1 ZZZ   0.000000   0.000000   0.000000   0.000000   0.000000
   39  O  1 XXY  -0.005837   0.006849   0.000000  -0.006001   0.000000
   40  O  1 XXZ   0.000000   0.000000   0.000000   0.000000   0.000000
   41  O  1 YYX   0.000000  -0.000004   0.003160   0.000002   0.000000
   42  O  1 YYZ   0.000000   0.000000   0.000000   0.000000   0.000000
   43  O  1 ZZX   0.000000   0.000003   0.000637  -0.000002   0.000000
   44  O  1 ZZY   0.004326  -0.003384   0.000000   0.001550   0.000000
   45  O  1 XYZ   0.000000   0.000000   0.000000   0.000000   0.005392
   46  H  2  S   -0.048401  -0.015231  -0.002363  -0.019840   0.000000
   47  H  2  S    0.145434  -0.485083   0.184054   0.115912   0.000000
   48  H  2  S   -1.550170  -5.831535   2.179286   2.640237   0.000000
   49  H  2  S    0.306867  -0.497344   1.982366   0.028311   0.000000
   50  H  2  X   -0.001965   0.001327   0.002162   0.003737   0.000000
   51  H  2  Y    0.000709   0.001801  -0.003729   0.008121   0.000000
   52  H  2  Z    0.000000   0.000000   0.000000   0.000000  -0.013178
   53  H  2  X    0.038917  -0.028339   0.022975   0.027890   0.000000
   54  H  2  Y   -0.006155   0.022861   0.005331  -0.002618   0.000000
   55  H  2  Z    0.000000   0.000000   0.000000   0.000000   0.024193
   56  H  2  X    0.072919  -0.546172   0.277331   0.731535   0.000000
   57  H  2  Y   -0.042108   0.488436  -0.295189   0.662085   0.000000
   58  H  2  Z    0.000000   0.000000   0.000000   0.000000  -1.019183
   59  H  3  S   -0.048422  -0.015277   0.002341  -0.019818   0.000000
   60  H  3  S    0.145411  -0.484303  -0.184376   0.115548   0.000000
   61  H  3  S   -1.550738  -5.827623  -2.185814   2.638778   0.000000
   62  H  3  S    0.307197  -0.494882  -1.982952   0.028612   0.000000
   63  H  3  X    0.001965  -0.001329   0.002161  -0.003738   0.000000
   64  H  3  Y    0.000709   0.001798   0.003733   0.008120   0.000000
   65  H  3  Z    0.000000   0.000000   0.000000   0.000000   0.013177
   66  H  3  X   -0.038921   0.028277   0.022976  -0.027871   0.000000
   67  H  3  Y   -0.006161   0.022825  -0.005324  -0.002591   0.000000
   68  H  3  Z    0.000000   0.000000   0.000000   0.000000  -0.024193
   69  H  3  X   -0.072914   0.545157   0.277798  -0.731032   0.000000
   70  H  3  Y   -0.042121   0.487621   0.295714   0.662421   0.000000
   71  H  3  Z    0.000000   0.000000   0.000000   0.000000   1.019182

     ---------------------------------------------------------------------
     PROPERTIES FOR THE BLYP     DFT FUNCTIONAL (RHF  TYPE) DENSITY MATRIX
     ---------------------------------------------------------------------

          -----------------
          ENERGY COMPONENTS
          -----------------

         WAVEFUNCTION NORMALIZATION =       1.0000000000

                ONE ELECTRON ENERGY =    -122.7672154922
                TWO ELECTRON ENERGY =      37.2583556982
           NUCLEAR REPULSION ENERGY =       9.0620148607
                                      ------------------
                       TOTAL ENERGY =     -76.4468449333

 ELECTRON-ELECTRON POTENTIAL ENERGY =      37.2583556982
  NUCLEUS-ELECTRON POTENTIAL ENERGY =    -199.0392710973
   NUCLEUS-NUCLEUS POTENTIAL ENERGY =       9.0620148607
                                      ------------------
             TOTAL POTENTIAL ENERGY =    -152.7189005384
               TOTAL KINETIC ENERGY =      76.2720556051
                 VIRIAL RATIO (V/T) =       2.0022916562

          ---------------------------------------
          MULLIKEN AND LOWDIN POPULATION ANALYSES
          ---------------------------------------

     MULLIKEN ATOMIC POPULATION IN EACH MOLECULAR ORBITAL

                      1          2          3          4          5

                  2.000000   2.000000   2.000000   2.000000   2.000000

    1             1.993013   1.881344   1.327271   1.728372   1.933933
    2             0.003494   0.059177   0.336435   0.135802   0.033033
    3             0.003494   0.059478   0.336293   0.135826   0.033034

               ----- POPULATIONS IN EACH AO -----
                             MULLIKEN      LOWDIN
              1  O  1  S      1.08536     1.01692
              2  O  1  S      0.90698     0.90071
              3  O  1  X      0.27494     0.25559
              4  O  1  Y      0.32113     0.30406
              5  O  1  Z      0.39142     0.37891
              6  O  1  S      1.00182     0.32958
              7  O  1  X      0.59038     0.32086
              8  O  1  Y      0.66346     0.36220
              9  O  1  Z      0.77647     0.41637
             10  O  1  S      0.95021     0.25385
             11  O  1  X      0.42210     0.33478
             12  O  1  Y      0.50068     0.37923
             13  O  1  Z      0.64258     0.39544
             14  O  1  S      0.10630     0.06249
             15  O  1  X      0.02460     0.07583
             16  O  1  Y      0.06007     0.10236
             17  O  1  Z      0.11962     0.11537
             18  O  1 XX      0.00004     0.07835
             19  O  1 YY      0.00001     0.07670
             20  O  1 ZZ      0.00015     0.07618
             21  O  1 XY      0.00000     0.00017
             22  O  1 XZ      0.00002     0.00000
             23  O  1 YZ      0.00000     0.00004
             24  O  1 XX      0.00191     0.18924
             25  O  1 YY      0.00034     0.17873
             26  O  1 ZZ      0.00619     0.17561
             27  O  1 XY      0.00000     0.00796
             28  O  1 XZ      0.00086     0.00000
             29  O  1 YZ      0.00000     0.00066
             30  O  1 XX      0.00320     0.05308
             31  O  1 YY      0.00071     0.04383
             32  O  1 ZZ      0.00857     0.03401
             33  O  1 XY      0.00000     0.02916
             34  O  1 XZ      0.00281     0.00000
             35  O  1 YZ      0.00000     0.00001
             36  O  1 XXX    -0.00004     0.19182
             37  O  1 YYY     0.00001     0.20397
             38  O  1 ZZZ     0.00038     0.23392
             39  O  1 XXY     0.00014     0.11650
             40  O  1 XXZ     0.00025     0.10739
             41  O  1 YYX     0.00000     0.10042
             42  O  1 YYZ     0.00026     0.10710
             43  O  1 ZZX     0.00000     0.07279
             44  O  1 ZZY     0.00000     0.08706
             45  O  1 XYZ     0.00000     0.00000
             46  H  2  S      0.27188     0.22336
             47  H  2  S      0.25980     0.24991
             48  H  2  S     -0.01824     0.07131
             49  H  2  S      0.00421     0.01324
             50  H  2  X      0.00150     0.00200
             51  H  2  Y      0.00110     0.00185
             52  H  2  Z      0.00068     0.00117
             53  H  2  X      0.01146     0.03165
             54  H  2  Y      0.01131     0.03524
             55  H  2  Z      0.01450     0.03111
             56  H  2  X     -0.00774     0.07345
             57  H  2  Y     -0.00038     0.09097
             58  H  2  Z      0.01785     0.09012
             59  H  3  S      0.27188     0.22336
             60  H  3  S      0.25987     0.24991
             61  H  3  S     -0.01817     0.07131
             62  H  3  S      0.00420     0.01324
             63  H  3  X      0.00150     0.00200
             64  H  3  Y      0.00110     0.00185
             65  H  3  Z      0.00068     0.00117
             66  H  3  X      0.01147     0.03165
             67  H  3  Y      0.01131     0.03524
             68  H  3  Z      0.01450     0.03111
             69  H  3  X     -0.00766     0.07345
             70  H  3  Y     -0.00039     0.09097
             71  H  3  Z      0.01785     0.09012

          ----- MULLIKEN ATOMIC OVERLAP POPULATIONS -----
          (OFF-DIAGONAL ELEMENTS NEED TO BE MULTIPLIED BY 2)

             1           2           3

    1    8.4976291
    2    0.1830191   0.3713871
    3    0.1832855   0.0135354   0.3713038

          TOTAL MULLIKEN AND LOWDIN ATOMIC POPULATIONS
       ATOM         MULL.POP.    CHARGE          LOW.POP.     CHARGE
    1 O             8.863934   -0.863934         8.169247   -0.169247
    2 H             0.567942    0.432058         0.915375    0.084625
    3 H             0.568125    0.431875         0.915379    0.084621

          MULLIKEN SPHERICAL HARMONIC POPULATIONS
       ATOM           S       P       D      F      G      H      I    TOTAL
    1 O             4.05    4.79    0.02   0.00   0.00   0.00   0.00    8.86
    2 H             0.52    0.05    0.00   0.00   0.00   0.00   0.00    0.57
    3 H             0.52    0.05    0.00   0.00   0.00   0.00   0.00    0.57

          -------------------------------
          BOND ORDER AND VALENCE ANALYSIS     BOND ORDER THRESHOLD=0.050
          -------------------------------

                   BOND                       BOND                       BOND
  ATOM PAIR DIST  ORDER      ATOM PAIR DIST  ORDER      ATOM PAIR DIST  ORDER
    1   2  0.971  0.768        1   3  0.971  0.768

                       TOTAL       BONDED        FREE
      ATOM            VALENCE     VALENCE     VALENCE
    1 O                 1.536       1.536       0.000
    2 H                 0.785       0.785       0.000
    3 H                 0.785       0.785       0.000

          ---------------------
          ELECTROSTATIC MOMENTS
          ---------------------

 POINT   1           X           Y           Z (BOHR)    CHARGE
                 0.000003   -0.026264    0.000000        0.00 (A.U.)
         DX          DY          DZ         /D/  (DEBYE)
    -0.000005    1.856048    0.000000    1.856048
 ...... END OF PROPERTY EVALUATION ......
 STEP CPU TIME =     0.16 TOTAL CPU TIME =      551.3 (    9.2 MIN)
 TOTAL WALL CLOCK TIME=      584.0 SECONDS, CPU UTILIZATION IS  94.41%
  $VIB   
          IVIB=   0 IATOM=   0 ICOORD=   0 E=      -76.4468449333
  1.275923239E-07-5.910037771E-05 0.000000000E+00-2.064798269E-05 2.959932677E-05
  0.000000000E+00 2.052039036E-05 2.950105094E-05 0.000000000E+00
 -4.926234017E-06 1.856048039E+00-3.456393507E-17
 ......END OF GEOMETRY SEARCH......
 STEP CPU TIME =     0.00 TOTAL CPU TIME =      551.3 (    9.2 MIN)
 TOTAL WALL CLOCK TIME=      584.0 SECONDS, CPU UTILIZATION IS  94.41%
 979658 WORDS OF DYNAMIC MEMORY USED
 EXECUTION OF GAMESS TERMINATED NORMALLY Sat Mar 28 17:39:18 2009
 DDI: 262808 bytes (0.3 MB / 0 MWords) used by master data server.

 ----------------------------------------
 CPU timing information for all processes
 ========================================
 0: 550.920000 + 0.428000 = 551.348000
 ----------------------------------------
 ddikick.x: exited gracefully.
