 Distributed Data Interface kickoff program.
 Initiating 1 compute processes on 1 nodes to run the following command:
 /home/instructor/gamess/gamess.April2008R1.x /home/instructor/webmo/gutow/135/input 

          ******************************************************
          *         GAMESS VERSION = 11 APR 2008 (R1)          *
          *             FROM IOWA STATE UNIVERSITY             *
          * M.W.SCHMIDT, K.K.BALDRIDGE, J.A.BOATZ, S.T.ELBERT, *
          *   M.S.GORDON, J.H.JENSEN, S.KOSEKI, N.MATSUNAGA,   *
          *          K.A.NGUYEN, S.J.SU, T.L.WINDUS,           *
          *       TOGETHER WITH M.DUPUIS, J.A.MONTGOMERY       *
          *         J.COMPUT.CHEM.  14, 1347-1363(1993)        *
          **************** 32 BIT LINUX VERSION ****************

     SINCE 1993, STUDENTS AND POSTDOCS WORKING AT IOWA STATE UNIVERSITY
     AND ALSO IN THEIR VARIOUS JOBS AFTER LEAVING ISU HAVE MADE IMPORTANT
     CONTRIBUTIONS TO THE CODE:
     IVANA ADAMOVIC, CHRISTINE AIKENS, YURI ALEXEEV, POOJA ARORA, ROB BELL,
     PRADIPTA BANDYOPADHYAY, JONATHAN BENTZ, BRETT BODE, GALINA CHABAN,
     WEI CHEN, CHEOL HO CHOI, PAUL DAY, TIM DUDLEY, DMITRI FEDOROV,
     GRAHAM FLETCHER, MARK FREITAG, KURT GLAESEMANN, DAN KEMP, GRANT MERRILL,
     JONATHAN MULLIN, TAKESHI NAGATA, SEAN NEDD, HEATHER NETZLOFF,
     BOSILJKA NJEGIC, RYAN OLSON, MIKE PAK, JIM SHOEMAKER, LYUDMILA SLIPCHENKO,
     SAROM SOK, JIE SONG, TETSUYA TAKETSUGU, SIMON WEBB, SOOHAENG YOO.

     ADDITIONAL CODE HAS BEEN PROVIDED BY COLLABORATORS IN OTHER GROUPS:
     IOWA STATE UNIVERSITY: JOE IVANIC, KLAUS RUEDENBERG
     UNIVERSITY OF TOKYO: KIMIHIKO HIRAO, TAKAHITO NAKAJIMA,
          TAKAO TSUNEDA, MUNEAKI KAMIYA, SUSUMU YANAGISAWA,
          KIYOSHI YAGI, MAHITO CHIBA, SEIKEN TOKURA, NAOAKI KAWAKAMI
     UNIVERSITY OF AARHUS: FRANK JENSEN
     UNIVERSITY OF IOWA: VISVALDAS KAIRYS, HUI LI
     NATIONAL INST. OF STANDARDS AND TECHNOLOGY: WALT STEVENS, DAVID GARMER
     UNIVERSITY OF PISA: BENEDETTA MENNUCCI, JACOPO TOMASI
     UNIVERSITY OF MEMPHIS: HENRY KURTZ, PRAKASHAN KORAMBATH
     UNIVERSITY OF ALBERTA: MARIUSZ KLOBUKOWSKI
     UNIVERSITY OF NEW ENGLAND: MARK SPACKMAN
     MIE UNIVERSITY: HIROAKI UMEDA
     MICHIGAN STATE UNIVERSITY:
          KAROL KOWALSKI, MARTA WLOCH, JEFFREY R. GOUR, PIOTR PIECUCH
     UNIVERSITY OF SILESIA: MONIKA MUSIAL, STANISLAW KUCHARSKI
     FACULTES UNIVERSITAIRES NOTRE-DAME DE LA PAIX:
          OLIVIER QUINET, BENOIT CHAMPAGNE
     UNIVERSITY OF CALIFORNIA - SANTA BARBARA: BERNARD KIRTMAN
     INSTITUTE FOR MOLECULAR SCIENCE: KAZUYA ISHIMURA AND SHIGERU NAGASE
     UNIVERSITY OF NOTRE DAME: DAN CHIPMAN
     KYUSHU UNIVERSITY:
          HARUYUKI NAKANO,
          FENG LONG GU, JACEK KORCHOWIEC, MARCIN MAKOWSKI, AND YURIKO AOKI,
          HIROTOSHI MORI AND EISAKU MIYOSHI
     PENNSYLVANIA STATE UNIVERSITY:
          TZVETELIN IORDANOV, CHET SWALINA, JONATHAN SKONE,
          SHARON HAMMES-SCHIFFER

 EXECUTION OF GAMESS BEGUN Sat Mar 28 14:22:58 2009

            ECHO OF THE FIRST FEW INPUT CARDS -
 INPUT CARD>!   File created by MacMolPlt 7.2.1                                             
 INPUT CARD> $CONTRL SCFTYP=RHF RUNTYP=OPTIMIZE EXETYP=RUN CCTYP=CCSD(T) MAXIT=30 MULT=1    
 INPUT CARD>    ISPHER=1 NUMGRD=.T. $END                                                    
 INPUT CARD> $SYSTEM TIMLIM=600 MEMORY=6000000 $END                                         
 INPUT CARD> $BASIS GBASIS=DZV NDFUNC=3 NFFUNC=1 NPFUNC=3 POLAR=DUNNING DIFFSP=.TRUE.       
 INPUT CARD>    DIFFS=.TRUE. $END                                                           
 INPUT CARD> $GUESS GUESS=HUCKEL $END                                                       
 INPUT CARD> $SCF DIRSCF=.TRUE. $END                                                        
 INPUT CARD> $STATPT OPTTOL=0.0001 NSTEP=40 $END                                            
 INPUT CARD> $DATA                                                                          
 INPUT CARD>untitled                                                                        
 INPUT CARD>C1                                                                              
 INPUT CARD>H     1.0     0.63278     0.00000     0.00000                                   
 INPUT CARD>Cl    17.0    -0.63278     0.00000     0.00000                                  
 INPUT CARD> $END                                                                           
    6000000 WORDS OF MEMORY AVAILABLE

     BASIS OPTIONS
     -------------
     GBASIS=DZV          IGAUSS=       0      POLAR=DUNNING 
     NDFUNC=       3     NFFUNC=       1     DIFFSP=       T
     NPFUNC=       3      DIFFS=       T
     SPLIT3=     4.00000000     1.00000000     0.25000000


     RUN TITLE
     ---------
 untitled                                                                        

 THE POINT GROUP OF THE MOLECULE IS C1      
 THE ORDER OF THE PRINCIPAL AXIS IS     0

 ATOM      ATOMIC                      COORDINATES (BOHR)
           CHARGE         X                   Y                   Z
 H           1.0     1.1957808105        0.0000000000        0.0000000000
 CL         17.0    -1.1957808105        0.0000000000        0.0000000000

          INTERNUCLEAR DISTANCES (ANGS.)
          ------------------------------

                1 H          2 CL    

   1 H       0.0000000    1.2655600 *
   2 CL      1.2655600 *  0.0000000  

  * ... LESS THAN  3.000


     ATOMIC BASIS SET
     ----------------
 THE CONTRACTED PRIMITIVE FUNCTIONS HAVE BEEN UNNORMALIZED
 THE CONTRACTED BASIS FUNCTIONS ARE NOW NORMALIZED TO UNITY

  SHELL TYPE  PRIMITIVE        EXPONENT          CONTRACTION COEFFICIENT(S)

 H         

      1   S       1            19.2384000    0.032827991019
      1   S       2             2.8987200    0.231203936751
      1   S       3             0.6534720    0.817225776436

      2   S       4             0.1630642    1.000000000000

      3   S       5             0.0360000    1.000000000000

      4   P       6             4.0000000    1.000000000000

      5   P       7             1.0000000    1.000000000000

      6   P       8             0.2500000    1.000000000000

 CL        

      7   S       9         40850.0000000    0.002532000659
      7   S      10          6179.0000000    0.019207005000
      7   S      11          1425.0000000    0.095257024799
      7   S      12           409.2000000    0.345589089970
      7   S      13           135.5000000    0.636401165680

      8   S      14           135.5000000    0.121766982341
      8   S      15            50.1300000    0.652859118069
      8   S      16            20.2100000    0.277334077386

      9   S      17             6.2830000    1.000000000000

     10   S      18             2.4600000    1.000000000000

     11   S      19             0.5271000    1.000000000000

     12   S      20             0.1884000    1.000000000000

     13   P      21           240.8000000    0.014593688374
     13   P      22            56.5600000    0.099038098830
     13   P      23            17.8500000    0.330532293007
     13   P      24             6.3500000    0.682812631382

     14   P      25             6.3500000   -0.561785107018
     14   P      26             2.4030000    1.351901257531

     15   P      27             0.6410000    1.000000000000

     16   P      28             0.1838000    1.000000000000

     17   L      29             0.0483000    1.000000000000    1.000000000000

     18   D      30             3.0000000    1.000000000000

     19   D      31             0.7500000    1.000000000000

     20   D      32             0.1875000    1.000000000000

     21   F      33             0.7000000    1.000000000000

 TOTAL NUMBER OF BASIS SET SHELLS             =   21
 NUMBER OF CARTESIAN GAUSSIAN BASIS FUNCTIONS =   62
 NOTE: THIS RUN WILL RESTRICT THE MO VARIATION SPACE TO SPHERICAL HARMONICS.
 THE NUMBER OF ORBITALS KEPT IN THE VARIATIONAL SPACE WILL BE PRINTED LATER.
 NUMBER OF ELECTRONS                          =   18
 CHARGE OF MOLECULE                           =    0
 SPIN MULTIPLICITY                            =    1
 NUMBER OF OCCUPIED ORBITALS (ALPHA)          =    9
 NUMBER OF OCCUPIED ORBITALS (BETA )          =    9
 TOTAL NUMBER OF ATOMS                        =    2
 THE NUCLEAR REPULSION ENERGY IS        7.1083261458

 THIS MOLECULE IS RECOGNIZED AS BEING LINEAR.

     $CONTRL OPTIONS
     ---------------
 SCFTYP=RHF          RUNTYP=OPTIMIZE     EXETYP=RUN     
 MPLEVL=       0     CITYP =NONE         CCTYP =CCSD(T)      VBTYP =NONE    
 DFTTYP=NONE         TDDFT =NONE    
 MULT  =       1     ICHARG=       0     NZVAR =       0     COORD =UNIQUE  
 PP    =NONE         RELWFN=NONE         LOCAL =NONE         NUMGRD=       T
 ISPHER=       1     NOSYM =       0     MAXIT =      30     UNITS =ANGS    
 PLTORB=       F     MOLPLT=       F     AIMPAC=       F     FRIEND=        
 NPRINT=       7     IREST =       0     GEOM  =INPUT   
 NORMF =       0     NORMP =       0     ITOL  =      20     ICUT  =       9
 INTTYP=BEST         GRDTYP=BEST         QMTTOL= 1.0E-06

     $SYSTEM OPTIONS
     ---------------
  REPLICATED MEMORY=     6000000 WORDS (ON EVERY NODE).
 DISTRIBUTED MEMDDI=           0 MILLION WORDS IN AGGREGATE,
 MEMDDI DISTRIBUTED OVER   1 PROCESSORS IS           0 WORDS/PROCESSOR.
 TOTAL MEMORY REQUESTED ON EACH PROCESSOR=     6000000 WORDS.
 TIMLIM=         600.00 MINUTES, OR     0.42 DAYS.
 PARALL= F  BALTYP=  NXTVAL  KDIAG=    0  COREFL= F

          ----------------
          PROPERTIES INPUT
          ----------------

     MOMENTS            FIELD           POTENTIAL          DENSITY
 IEMOM =       1   IEFLD =       0   IEPOT =       0   IEDEN =       0
 WHERE =COMASS     WHERE =NUCLEI     WHERE =NUCLEI     WHERE =NUCLEI  
 OUTPUT=BOTH       OUTPUT=BOTH       OUTPUT=BOTH       OUTPUT=BOTH    
 IEMINT=       0   IEFINT=       0                     IEDINT=       0
                                                       MORB  =       0
          EXTRAPOLATION IN EFFECT
          SOSCF IN EFFECT
 ORBITAL PRINTING OPTION: NPREO=   1  62   2   1

     -------------------------------
     INTEGRAL TRANSFORMATION OPTIONS
     -------------------------------
     NWORD  =         0     CUTOFF = 1.0E-09
     MPTRAN =         0     DIRTRF =       T
     AOINTS =DUP     

          ----------------------
          INTEGRAL INPUT OPTIONS
          ----------------------
 NOPK  =       1 NORDER=       0 SCHWRZ=       T

     ------------------------------------------
     THE POINT GROUP IS C1 , NAXIS= 0, ORDER= 1
     ------------------------------------------

 -- VARIATIONAL SPACE WILL BE RESTRICTED TO PURE SPHERICAL HARMONICS ONLY --
 AFTER EXCLUDING CONTAMINANT COMBINATIONS FROM THE CARTESIAN GAUSSIAN BASIS
 SET, THE NUMBER OF SPHERICAL HARMONICS KEPT IN THE VARIATION SPACE IS   56

     DIMENSIONS OF THE SYMMETRY SUBSPACES ARE
 A   =   56

 ..... DONE SETTING UP THE RUN .....
 STEP CPU TIME =     0.10 TOTAL CPU TIME =        0.1 (    0.0 MIN)
 TOTAL WALL CLOCK TIME=        2.0 SECONDS, CPU UTILIZATION IS   5.00%


          -----------------------------
          STATIONARY POINT LOCATION RUN
          -----------------------------

 OBTAINING INITIAL HESSIAN, HESS=GUESS   
 CARTESIAN COORDINATE OPTIMIZATION USING BADGER'S RULE FORCE CONSTANT GUESS

          PARAMETERS CONTROLLING GEOMETRY SEARCH ARE
          METHOD =QA                  UPHESS =BFGS    
          NNEG   =         0          NFRZ   =         0
          NSTEP  =        40          IFOLOW =         1
          HESS   =GUESS               RESTAR =         F
          IHREP  =         0          HSSEND =         F
          NPRT   =         0          NPUN   =         0
          OPTTOL = 1.000E-04          RMIN   = 1.500E-03
          RMAX   = 1.000E-01          RLIM   = 7.000E-02
          DXMAX  = 3.000E-01          PURIFY =         F
          MOVIE  =         F          TRUPD  =         T
          TRMAX  = 5.000E-01          TRMIN  = 5.000E-02
          ITBMAT =         5          STPT   =         F
          STSTEP = 1.000E-02          PROJCT=          T

 BEGINNING GEOMETRY SEARCH POINT NSERCH=   0 ...

 COORDINATES OF ALL ATOMS ARE (ANGS)
   ATOM   CHARGE       X              Y              Z
 ------------------------------------------------------------
 H           1.0   0.6327800000   0.0000000000   0.0000000000
 CL         17.0  -0.6327800000   0.0000000000   0.0000000000

          ********************
          1 ELECTRON INTEGRALS
          ********************
 ...... END OF ONE-ELECTRON INTEGRALS ......
 STEP CPU TIME =     0.01 TOTAL CPU TIME =        0.1 (    0.0 MIN)
 TOTAL WALL CLOCK TIME=        2.0 SECONDS, CPU UTILIZATION IS   5.50%

          -------------
          GUESS OPTIONS
          -------------
          GUESS =HUCKEL            NORB  =       0          NORDER=       0
          MIX   =       F          PRTMO =       F          PUNMO =       F
          TOLZ  = 1.0E-08          TOLE  = 1.0E-05
          SYMDEN=       F          PURIFY=       F

 INITIAL GUESS ORBITALS GENERATED BY HUCKEL   ROUTINE.
 HUCKEL GUESS REQUIRES     30048 WORDS.

 STATISTICS FOR GENERATION OF SYMMETRY ORBITAL -Q- MATRIX
 NUMBER OF CARTESIAN ATOMIC ORBITALS=         62
 NUMBER OF SPHERICAL CONTAMINANTS DROPPED=     6
 NUMBER OF LINEARLY DEPENDENT MOS DROPPED=     0
 TOTAL NUMBER OF MOS IN VARIATION SPACE=      56

 SYMMETRIES FOR INITIAL GUESS ORBITALS FOLLOW.   BOTH SET(S).
     9 ORBITALS ARE OCCUPIED (    5 CORE ORBITALS).
     6=A        7=A        8=A        9=A       10=A       11=A       12=A   
    13=A       14=A       15=A       16=A       17=A       18=A       19=A   
 ...... END OF INITIAL ORBITAL SELECTION ......
 STEP CPU TIME =     0.07 TOTAL CPU TIME =        0.2 (    0.0 MIN)
 TOTAL WALL CLOCK TIME=        2.0 SECONDS, CPU UTILIZATION IS   9.00%

                    ----------------------
                    AO INTEGRAL TECHNOLOGY
                    ----------------------
     S,P,L SHELL ROTATED AXIS INTEGRALS, REPROGRAMMED BY
        KAZUYA ISHIMURA (IMS) AND JOSE SIERRA (SYNSTAR).
     S,P,D,L SHELL ROTATED AXIS INTEGRALS PROGRAMMED BY
        KAZUYA ISHIMURA (INSTITUTE FOR MOLECULAR SCIENCE).
     S,P,D,F,G SHELL TO TOTAL QUARTET ANGULAR MOMENTUM SUM 5,
        ERIC PROGRAM BY GRAHAM FLETCHER (ELORET AND NASA ADVANCED
        SUPERCOMPUTING DIVISION, AMES RESEARCH CENTER).
     S,P,D,F,G,L SHELL GENERAL RYS QUADRATURE PROGRAMMED BY
        MICHEL DUPUIS (PACIFIC NORTHWEST NATIONAL LABORATORY).

          --------------------
          2 ELECTRON INTEGRALS
          --------------------

 DIRECT SCF METHOD SKIPS INTEGRAL STORAGE ON DISK.
 DIRECT TRANSFORMATION SKIPS AO INTEGRAL STORAGE ON DISK.
  ...... END OF TWO-ELECTRON INTEGRALS .....
 STEP CPU TIME =     0.36 TOTAL CPU TIME =        0.5 (    0.0 MIN)
 TOTAL WALL CLOCK TIME=        2.0 SECONDS, CPU UTILIZATION IS  27.00%

          --------------------------
                 RHF SCF CALCULATION
          --------------------------

     NUCLEAR ENERGY =         7.1083261458
     MAXIT =   30     NPUNCH=    2
     EXTRAP=T  DAMP=F  SHIFT=F  RSTRCT=F  DIIS=F  DEM=F  SOSCF=T
     DENSITY MATRIX CONV=  2.00E-06
     SOSCF WILL OPTIMIZE     423 ORBITAL ROTATIONS, SOGTOL=   0.250
     MEMORY REQUIRED FOR RHF ITERS=     84030 WORDS.

 DIRECT SCF CALCULATION, SCHWRZ=T   FDIFF=T,  DIRTHR=  0.00E+00 NITDIR=10
 SCHWARZ INEQUALITY OVERHEAD:      1953 INTEGRALS, T=        0.02

                                                                                   NONZERO     BLOCKS
 ITER EX DEM     TOTAL ENERGY        E CHANGE  DENSITY CHANGE     ORB. GRAD      INTEGRALS    SKIPPED
   1  0  0     -459.7216143933  -459.7216143933   0.138695368   0.000000000         404040        240
          ---------------START SECOND ORDER SCF---------------
   2  1  0     -460.0594737136    -0.3378593204   0.025869743   0.039352321         403968        287
   3  2  0     -460.0669563179    -0.0074826042   0.011413696   0.009577339         403513        427
   4  3  0     -460.0677241498    -0.0007678319   0.003721312   0.002689694         403343        466
   5  4  0     -460.0677529821    -0.0000288324   0.000430431   0.000304015         403028        539
   6  5  0     -460.0677541801    -0.0000011979   0.000129111   0.000097591         401897        656
   7  6  0     -460.0677542737    -0.0000000936   0.000042921   0.000028490         398993        829
   8  7  0     -460.0677542781    -0.0000000044   0.000018485   0.000006547         393679       1183
   9  8  0     -460.0677542786    -0.0000000005   0.000003263   0.000001832         390566       1495
  10  9  0     -460.0677542785     0.0000000000   0.000000602   0.000000386         382883       1939

 RHF HAS CONVERGED, NOW COMPUTING EXACT TOTAL FOCK MATRIX
 FOR USE DURING THE COUPLED CLUSTER CALCULATION THAT FOLLOWS.

          -----------------
          DENSITY CONVERGED
          -----------------
     TIME TO FORM FOCK OPERATORS=      16.8 SECONDS (       1.7 SEC/ITER)
     FOCK TIME ON FIRST ITERATION=       1.8, LAST ITERATION=       1.6
     TIME TO SOLVE SCF EQUATIONS=       0.1 SECONDS (       0.0 SEC/ITER)

 FINAL RHF ENERGY IS     -460.0677542785 AFTER  10 ITERATIONS

          ------------
          EIGENVECTORS
          ------------

                      1          2          3          4          5
                 -104.8596   -10.5802    -8.0461    -8.0441    -8.0441
                     A          A          A          A          A   
    1  H  1  S   -0.000011   0.000273  -0.000477   0.000000   0.000000
    2  H  1  S   -0.000506   0.014694   0.000975   0.000000   0.000000
    3  H  1  S    0.000043  -0.002321  -0.000787   0.000000   0.000000
    4  H  1  X    0.000019  -0.000177   0.000041   0.000000   0.000000
    5  H  1  Y    0.000000   0.000000   0.000000   0.000014   0.000032
    6  H  1  Z    0.000000   0.000000   0.000000   0.000032  -0.000014
    7  H  1  X   -0.000064   0.001445   0.000693   0.000000   0.000000
    8  H  1  Y    0.000000   0.000000   0.000000  -0.000084  -0.000189
    9  H  1  Z    0.000000   0.000000   0.000000  -0.000189   0.000084
   10  H  1  X    0.000219  -0.005952   0.000165   0.000000   0.000000
   11  H  1  Y    0.000000   0.000000   0.000000   0.000157   0.000353
   12  H  1  Z    0.000000   0.000000   0.000000   0.000353  -0.000157
   13  CL 2  S    0.397081  -0.117011   0.000476   0.000000   0.000000
   14  CL 2  S    0.672039  -0.334475   0.001384   0.000000   0.000000
   15  CL 2  S    0.008235   0.554602  -0.002796   0.000000   0.000000
   16  CL 2  S    0.000638   0.564520  -0.002024   0.000000   0.000000
   17  CL 2  S   -0.000534   0.042478   0.001224   0.000000   0.000000
   18  CL 2  S    0.000675  -0.024403  -0.000281   0.000000   0.000000
   19  CL 2  X    0.000052   0.002814   0.897612   0.000000   0.000000
   20  CL 2  Y    0.000000   0.000000   0.000000   0.364917   0.821142
   21  CL 2  Z    0.000000   0.000000   0.000000   0.821142  -0.364917
   22  CL 2  X   -0.000006   0.000858   0.222380   0.000000   0.000000
   23  CL 2  Y    0.000000   0.000000   0.000000   0.089918   0.202335
   24  CL 2  Z    0.000000   0.000000   0.000000   0.202335  -0.089918
   25  CL 2  X   -0.000030   0.001312   0.023815   0.000000   0.000000
   26  CL 2  Y    0.000000   0.000000   0.000000   0.009113   0.020505
   27  CL 2  Z    0.000000   0.000000   0.000000   0.020505  -0.009113
   28  CL 2  X    0.000317  -0.009171  -0.003731   0.000000   0.000000
   29  CL 2  Y    0.000000   0.000000   0.000000  -0.001441  -0.003242
   30  CL 2  Z    0.000000   0.000000   0.000000  -0.003242   0.001441
   31  CL 2  S   -0.000028   0.002716   0.000393   0.000000   0.000000
   32  CL 2  X    0.000016  -0.000102   0.000985   0.000000   0.000000
   33  CL 2  Y    0.000000   0.000000   0.000000   0.000381   0.000857
   34  CL 2  Z    0.000000   0.000000   0.000000   0.000857  -0.000381
   35  CL 2 XX    0.000006   0.000555   0.000386   0.000000   0.000000
   36  CL 2 YY   -0.000003  -0.000278  -0.000193   0.000000   0.000000
   37  CL 2 ZZ   -0.000003  -0.000278  -0.000193   0.000000   0.000000
   38  CL 2 XY    0.000000   0.000000   0.000000   0.000286   0.000643
   39  CL 2 XZ    0.000000   0.000000   0.000000   0.000643  -0.000286
   40  CL 2 YZ    0.000000   0.000000   0.000000   0.000000   0.000000
   41  CL 2 XX   -0.000013   0.000465   0.000770   0.000000   0.000000
   42  CL 2 YY    0.000007  -0.000233  -0.000385   0.000000   0.000000
   43  CL 2 ZZ    0.000007  -0.000233  -0.000385   0.000000   0.000000
   44  CL 2 XY    0.000000   0.000000   0.000000  -0.000019  -0.000044
   45  CL 2 XZ    0.000000   0.000000   0.000000  -0.000044   0.000019
   46  CL 2 YZ    0.000000   0.000000   0.000000   0.000000   0.000000
   47  CL 2 XX    0.000115  -0.003335  -0.000196   0.000000   0.000000
   48  CL 2 YY   -0.000058   0.001668   0.000098   0.000000   0.000000
   49  CL 2 ZZ   -0.000058   0.001668   0.000098   0.000000   0.000000
   50  CL 2 XY    0.000000   0.000000   0.000000  -0.000079  -0.000178
   51  CL 2 XZ    0.000000   0.000000   0.000000  -0.000178   0.000079
   52  CL 2 YZ    0.000000   0.000000   0.000000   0.000000   0.000000
   53  CL 2 XXX  -0.000007   0.000301   0.000669   0.000000   0.000000
   54  CL 2 YYY   0.000000   0.000000   0.000000  -0.000035  -0.000080
   55  CL 2 ZZZ   0.000000   0.000000   0.000000  -0.000080   0.000035
   56  CL 2 XXY   0.000000   0.000000   0.000000   0.000063   0.000142
   57  CL 2 XXZ   0.000000   0.000000   0.000000   0.000142  -0.000063
   58  CL 2 YYX   0.000005  -0.000202  -0.000449   0.000000   0.000000
   59  CL 2 YYZ   0.000000   0.000000   0.000000  -0.000036   0.000016
   60  CL 2 ZZX   0.000005  -0.000202  -0.000449   0.000000   0.000000
   61  CL 2 ZZY   0.000000   0.000000   0.000000  -0.000016  -0.000036
   62  CL 2 XYZ   0.000000   0.000000   0.000000   0.000000   0.000000

                      6          7          8          9         10
                   -1.1219    -0.6298    -0.4783    -0.4783     0.0413
                     A          A          A          A          A   
    1  H  1  S    0.142905   0.269531   0.000000   0.000000   0.022611
    2  H  1  S    0.019801   0.151901   0.000000   0.000000   0.182928
    3  H  1  S    0.002521   0.022791   0.000000   0.000000   2.624009
    4  H  1  X   -0.001594  -0.001560   0.000000   0.000000   0.000586
    5  H  1  Y    0.000000   0.000000   0.000822   0.000259   0.000000
    6  H  1  Z    0.000000   0.000000  -0.000259   0.000822   0.000000
    7  H  1  X   -0.016733  -0.017961   0.000000   0.000000   0.010527
    8  H  1  Y    0.000000   0.000000   0.011756   0.003707   0.000000
    9  H  1  Z    0.000000   0.000000  -0.003707   0.011756   0.000000
   10  H  1  X    0.002252  -0.006380   0.000000   0.000000   0.002429
   11  H  1  Y    0.000000   0.000000   0.016669   0.005256   0.000000
   12  H  1  Z    0.000000   0.000000  -0.005256   0.016669   0.000000
   13  CL 2  S    0.033231  -0.009912   0.000000   0.000000  -0.005048
   14  CL 2  S    0.101560  -0.030511   0.000000   0.000000  -0.015432
   15  CL 2  S   -0.223219   0.069221   0.000000   0.000000   0.034042
   16  CL 2  S   -0.365396   0.110883   0.000000   0.000000   0.062183
   17  CL 2  S    0.617832  -0.203238   0.000000   0.000000  -0.134832
   18  CL 2  S    0.490974  -0.212347   0.000000   0.000000  -0.068911
   19  CL 2  X   -0.029715  -0.201551   0.000000   0.000000   0.039455
   20  CL 2  Y    0.000000   0.000000  -0.232116  -0.073194   0.000000
   21  CL 2  Z    0.000000   0.000000   0.073194  -0.232116   0.000000
   22  CL 2  X   -0.004495  -0.019123   0.000000   0.000000   0.003709
   23  CL 2  Y    0.000000   0.000000  -0.018005  -0.005677   0.000000
   24  CL 2  Z    0.000000   0.000000   0.005677  -0.018005   0.000000
   25  CL 2  X    0.056937   0.434095   0.000000   0.000000  -0.093227
   26  CL 2  Y    0.000000   0.000000   0.513751   0.162003   0.000000
   27  CL 2  Z    0.000000   0.000000  -0.162003   0.513751   0.000000
   28  CL 2  X    0.046597   0.372526   0.000000   0.000000  -0.119214
   29  CL 2  Y    0.000000   0.000000   0.517643   0.163230   0.000000
   30  CL 2  Z    0.000000   0.000000  -0.163230   0.517643   0.000000
   31  CL 2  S    0.009415  -0.037668   0.000000   0.000000  -1.791136
   32  CL 2  X   -0.001414   0.001641   0.000000   0.000000  -0.762964
   33  CL 2  Y    0.000000   0.000000   0.049053   0.015468   0.000000
   34  CL 2  Z    0.000000   0.000000  -0.015468   0.049053   0.000000
   35  CL 2 XX    0.004127   0.013539   0.000000   0.000000   0.000923
   36  CL 2 YY   -0.002064  -0.006770   0.000000   0.000000  -0.000461
   37  CL 2 ZZ   -0.002064  -0.006770   0.000000   0.000000  -0.000461
   38  CL 2 XY    0.000000   0.000000   0.001628   0.000513   0.000000
   39  CL 2 XZ    0.000000   0.000000  -0.000513   0.001628   0.000000
   40  CL 2 YZ    0.000000   0.000000   0.000000   0.000000   0.000000
   41  CL 2 XX    0.020205   0.055794   0.000000   0.000000   0.009040
   42  CL 2 YY   -0.010103  -0.027897   0.000000   0.000000  -0.004520
   43  CL 2 ZZ   -0.010103  -0.027897   0.000000   0.000000  -0.004520
   44  CL 2 XY    0.000000   0.000000   0.009302   0.002933   0.000000
   45  CL 2 XZ    0.000000   0.000000  -0.002933   0.009302   0.000000
   46  CL 2 YZ    0.000000   0.000000   0.000000   0.000000   0.000000
   47  CL 2 XX    0.012462   0.051663   0.000000   0.000000  -0.026214
   48  CL 2 YY   -0.006231  -0.025832   0.000000   0.000000   0.013107
   49  CL 2 ZZ   -0.006231  -0.025832   0.000000   0.000000   0.013107
   50  CL 2 XY    0.000000   0.000000   0.011127   0.003509   0.000000
   51  CL 2 XZ    0.000000   0.000000  -0.003509   0.011127   0.000000
   52  CL 2 YZ    0.000000   0.000000   0.000000   0.000000   0.000000
   53  CL 2 XXX   0.005714   0.012970   0.000000   0.000000  -0.000527
   54  CL 2 YYY   0.000000   0.000000  -0.004672  -0.001473   0.000000
   55  CL 2 ZZZ   0.000000   0.000000   0.001473  -0.004672   0.000000
   56  CL 2 XXY   0.000000   0.000000   0.008358   0.002636   0.000000
   57  CL 2 XXZ   0.000000   0.000000  -0.002636   0.008358   0.000000
   58  CL 2 YYX  -0.003833  -0.008701   0.000000   0.000000   0.000354
   59  CL 2 YYZ   0.000000   0.000000   0.000659  -0.002090   0.000000
   60  CL 2 ZZX  -0.003833  -0.008701   0.000000   0.000000   0.000354
   61  CL 2 ZZY   0.000000   0.000000  -0.002090  -0.000659   0.000000
   62  CL 2 XYZ   0.000000   0.000000   0.000000   0.000000   0.000000

                     11         12         13         14         15
                    0.1331     0.1477     0.1477     0.1913     0.2172
                     A          A          A          A          A   
    1  H  1  S   -0.058251   0.000000   0.000000  -0.107699  -0.197132
    2  H  1  S   -0.275096   0.000000   0.000000  -2.608365  -1.022844
    3  H  1  S    0.220272   0.000000   0.000000  -3.031324   2.101525
    4  H  1  X   -0.001211   0.000000   0.000000   0.001800  -0.005058
    5  H  1  Y    0.000000  -0.000534  -0.000722   0.000000   0.000000
    6  H  1  Z    0.000000  -0.000722   0.000534   0.000000   0.000000
    7  H  1  X    0.012604   0.000000   0.000000  -0.007212   0.006582
    8  H  1  Y    0.000000   0.002964   0.004006   0.000000   0.000000
    9  H  1  Z    0.000000   0.004006  -0.002964   0.000000   0.000000
   10  H  1  X   -0.039841   0.000000   0.000000   0.552515  -0.037496
   11  H  1  Y    0.000000  -0.008201  -0.011085   0.000000   0.000000
   12  H  1  Z    0.000000  -0.011085   0.008201   0.000000   0.000000
   13  CL 2  S    0.006080   0.000000   0.000000  -0.004848   0.008573
   14  CL 2  S    0.019246   0.000000   0.000000  -0.015054   0.026922
   15  CL 2  S   -0.048471   0.000000   0.000000   0.035308  -0.065909
   16  CL 2  S   -0.053501   0.000000   0.000000   0.054164  -0.082002
   17  CL 2  S    0.037141   0.000000   0.000000  -0.151718   0.056339
   18  CL 2  S    0.537520   0.000000   0.000000   0.407898   0.905598
   19  CL 2  X    0.028501   0.000000   0.000000  -0.025588  -0.129131
   20  CL 2  Y    0.000000   0.042647   0.057647   0.000000   0.000000
   21  CL 2  Z    0.000000   0.057647  -0.042647   0.000000   0.000000
   22  CL 2  X   -0.005184   0.000000   0.000000   0.002864  -0.001998
   23  CL 2  Y    0.000000  -0.003607  -0.004876   0.000000   0.000000
   24  CL 2  Z    0.000000  -0.004876   0.003607   0.000000   0.000000
   25  CL 2  X   -0.034126   0.000000   0.000000   0.027023   0.252347
   26  CL 2  Y    0.000000  -0.068370  -0.092418   0.000000   0.000000
   27  CL 2  Z    0.000000  -0.092418   0.068370   0.000000   0.000000
   28  CL 2  X   -0.261646   0.000000   0.000000   1.167984   0.854631
   29  CL 2  Y    0.000000  -0.300994  -0.406867   0.000000   0.000000
   30  CL 2  Z    0.000000  -0.406867   0.300994   0.000000   0.000000
   31  CL 2  S   -0.761157   0.000000   0.000000   4.577940  -1.948341
   32  CL 2  X    1.020474   0.000000   0.000000   1.933490  -0.985990
   33  CL 2  Y    0.000000   0.711121   0.961253   0.000000   0.000000
   34  CL 2  Z    0.000000   0.961253  -0.711121   0.000000   0.000000
   35  CL 2 XX   -0.007521   0.000000   0.000000  -0.018320  -0.025841
   36  CL 2 YY    0.003761   0.000000   0.000000   0.009160   0.012921
   37  CL 2 ZZ    0.003761   0.000000   0.000000   0.009160   0.012921
   38  CL 2 XY    0.000000   0.000139   0.000188   0.000000   0.000000
   39  CL 2 XZ    0.000000   0.000188  -0.000139   0.000000   0.000000
   40  CL 2 YZ    0.000000   0.000000   0.000000   0.000000   0.000000
   41  CL 2 XX   -0.030286   0.000000   0.000000  -0.077092  -0.072820
   42  CL 2 YY    0.015143   0.000000   0.000000   0.038546   0.036410
   43  CL 2 ZZ    0.015143   0.000000   0.000000   0.038546   0.036410
   44  CL 2 XY    0.000000  -0.002320  -0.003136   0.000000   0.000000
   45  CL 2 XZ    0.000000  -0.003136   0.002320   0.000000   0.000000
   46  CL 2 YZ    0.000000   0.000000   0.000000   0.000000   0.000000
   47  CL 2 XX   -0.024051   0.000000   0.000000   0.359922  -0.166612
   48  CL 2 YY    0.012026   0.000000   0.000000  -0.179961   0.083306
   49  CL 2 ZZ    0.012026   0.000000   0.000000  -0.179961   0.083306
   50  CL 2 XY    0.000000   0.009638   0.013028   0.000000   0.000000
   51  CL 2 XZ    0.000000   0.013028  -0.009638   0.000000   0.000000
   52  CL 2 YZ    0.000000   0.000000   0.000000   0.000000   0.000000
   53  CL 2 XXX  -0.002795   0.000000   0.000000   0.008172   0.001989
   54  CL 2 YYY   0.000000   0.000877   0.001185   0.000000   0.000000
   55  CL 2 ZZZ   0.000000   0.001185  -0.000877   0.000000   0.000000
   56  CL 2 XXY   0.000000  -0.001568  -0.002120   0.000000   0.000000
   57  CL 2 XXZ   0.000000  -0.002120   0.001568   0.000000   0.000000
   58  CL 2 YYX   0.001875   0.000000   0.000000  -0.005482  -0.001334
   59  CL 2 YYZ   0.000000   0.000530  -0.000392   0.000000   0.000000
   60  CL 2 ZZX   0.001875   0.000000   0.000000  -0.005482  -0.001334
   61  CL 2 ZZY   0.000000   0.000392   0.000530   0.000000   0.000000
   62  CL 2 XYZ   0.000000   0.000000   0.000000   0.000000   0.000000

                     16         17         18         19         20
                    0.3868     0.3868     0.4296     0.4296     0.5091
                     A          A          A          A          A   
    1  H  1  S    0.000000   0.000000   0.000000   0.000000  -0.158786
    2  H  1  S    0.000000   0.000000   0.000000   0.000000   5.870335
    3  H  1  S    0.000000   0.000000   0.000000   0.000000   1.240441
    4  H  1  X    0.000000   0.000000   0.000000   0.000000   0.003905
    5  H  1  Y   -0.003218   0.007407   0.000000   0.000000   0.000000
    6  H  1  Z    0.007407   0.003218   0.000000   0.000000   0.000000
    7  H  1  X    0.000000   0.000000   0.000000   0.000000   0.006611
    8  H  1  Y    0.004006  -0.009221   0.000000   0.000000   0.000000
    9  H  1  Z   -0.009221  -0.004006   0.000000   0.000000   0.000000
   10  H  1  X    0.000000   0.000000   0.000000   0.000000  -1.205016
   11  H  1  Y   -0.124757   0.287184   0.000000   0.000000   0.000000
   12  H  1  Z    0.287184   0.124757   0.000000   0.000000   0.000000
   13  CL 2  S    0.000000   0.000000   0.000000   0.000000  -0.003030
   14  CL 2  S    0.000000   0.000000   0.000000   0.000000  -0.010483
   15  CL 2  S    0.000000   0.000000   0.000000   0.000000   0.034661
   16  CL 2  S    0.000000   0.000000   0.000000   0.000000  -0.006973
   17  CL 2  S    0.000000   0.000000   0.000000   0.000000   0.338254
   18  CL 2  S    0.000000   0.000000   0.000000   0.000000  -2.955735
   19  CL 2  X    0.000000   0.000000   0.000000   0.000000   0.018032
   20  CL 2  Y   -0.006559   0.015098   0.000000   0.000000   0.000000
   21  CL 2  Z    0.015098   0.006559   0.000000   0.000000   0.000000
   22  CL 2  X    0.000000   0.000000   0.000000   0.000000  -0.003311
   23  CL 2  Y   -0.000253   0.000582   0.000000   0.000000   0.000000
   24  CL 2  Z    0.000582   0.000253   0.000000   0.000000   0.000000
   25  CL 2  X    0.000000   0.000000   0.000000   0.000000  -0.005843
   26  CL 2  Y    0.016054  -0.036955   0.000000   0.000000   0.000000
   27  CL 2  Z   -0.036955  -0.016054   0.000000   0.000000   0.000000
   28  CL 2  X    0.000000   0.000000   0.000000   0.000000  -2.626195
   29  CL 2  Y    0.051630  -0.118850   0.000000   0.000000   0.000000
   30  CL 2  Z   -0.118850  -0.051630   0.000000   0.000000   0.000000
   31  CL 2  S    0.000000   0.000000   0.000000   0.000000  -2.849350
   32  CL 2  X    0.000000   0.000000   0.000000   0.000000  -1.513623
   33  CL 2  Y    0.019051  -0.043855   0.000000   0.000000   0.000000
   34  CL 2  Z   -0.043855  -0.019051   0.000000   0.000000   0.000000
   35  CL 2 XX    0.000000   0.000000   0.000000   0.000000  -0.055845
   36  CL 2 YY    0.000000   0.000000  -0.054808   0.005531   0.027923
   37  CL 2 ZZ    0.000000   0.000000   0.054808  -0.005531   0.027923
   38  CL 2 XY   -0.023409   0.053887   0.000000   0.000000   0.000000
   39  CL 2 XZ    0.053887   0.023409   0.000000   0.000000   0.000000
   40  CL 2 YZ    0.000000   0.000000   0.006386   0.063287   0.000000
   41  CL 2 XX    0.000000   0.000000   0.000000   0.000000  -0.190096
   42  CL 2 YY    0.000000   0.000000  -0.141282   0.014257   0.095048
   43  CL 2 ZZ    0.000000   0.000000   0.141282  -0.014257   0.095048
   44  CL 2 XY   -0.063908   0.147113   0.000000   0.000000   0.000000
   45  CL 2 XZ    0.147113   0.063908   0.000000   0.000000   0.000000
   46  CL 2 YZ    0.000000   0.000000   0.016463   0.163139   0.000000
   47  CL 2 XX    0.000000   0.000000   0.000000   0.000000  -1.858034
   48  CL 2 YY    0.000000   0.000000  -0.778181   0.078527   0.929017
   49  CL 2 ZZ    0.000000   0.000000   0.778181  -0.078527   0.929017
   50  CL 2 XY   -0.278202   0.640408   0.000000   0.000000   0.000000
   51  CL 2 XZ    0.640408   0.278202   0.000000   0.000000   0.000000
   52  CL 2 YZ    0.000000   0.000000   0.090676   0.898566   0.000000
   53  CL 2 XXX   0.000000   0.000000   0.000000   0.000000  -0.052517
   54  CL 2 YYY   0.001839  -0.004233   0.000000   0.000000   0.000000
   55  CL 2 ZZZ  -0.004233  -0.001839   0.000000   0.000000   0.000000
   56  CL 2 XXY  -0.003289   0.007572   0.000000   0.000000   0.000000
   57  CL 2 XXZ   0.007572   0.003289   0.000000   0.000000   0.000000
   58  CL 2 YYX   0.000000   0.000000  -0.004749   0.000479   0.035230
   59  CL 2 YYZ  -0.001893  -0.000822   0.000000   0.000000   0.000000
   60  CL 2 ZZX   0.000000   0.000000   0.004749  -0.000479   0.035230
   61  CL 2 ZZY   0.000822  -0.001893   0.000000   0.000000   0.000000
   62  CL 2 XYZ   0.000000   0.000000   0.000553   0.005483   0.000000

                     21         22         23         24         25
                    0.7605     0.7605     0.8505     1.0352     1.0352
                     A          A          A          A          A   
    1  H  1  S    0.000000   0.000000  -0.188917   0.000000   0.000000
    2  H  1  S    0.000000   0.000000   7.597644   0.000000   0.000000
    3  H  1  S    0.000000   0.000000   0.730725   0.000000   0.000000
    4  H  1  X    0.000000   0.000000  -0.016095   0.000000   0.000000
    5  H  1  Y    0.020500  -0.001871   0.000000   0.000010   0.000107
    6  H  1  Z    0.001871   0.020500   0.000000   0.000107  -0.000010
    7  H  1  X    0.000000   0.000000   0.077684   0.000000   0.000000
    8  H  1  Y   -0.109289   0.009976   0.000000  -0.001014  -0.010842
    9  H  1  Z   -0.009976  -0.109289   0.000000  -0.010842   0.001014
   10  H  1  X    0.000000   0.000000  -3.535602   0.000000   0.000000
   11  H  1  Y    1.744498  -0.159241   0.000000  -0.042435  -0.453494
   12  H  1  Z    0.159241   1.744498   0.000000  -0.453494   0.042435
   13  CL 2  S    0.000000   0.000000  -0.013022   0.000000   0.000000
   14  CL 2  S    0.000000   0.000000  -0.039832   0.000000   0.000000
   15  CL 2  S    0.000000   0.000000   0.088439   0.000000   0.000000
   16  CL 2  S    0.000000   0.000000   0.179202   0.000000   0.000000
   17  CL 2  S    0.000000   0.000000  -0.235651   0.000000   0.000000
   18  CL 2  S    0.000000   0.000000  -5.010916   0.000000   0.000000
   19  CL 2  X    0.000000   0.000000  -0.119669   0.000000   0.000000
   20  CL 2  Y    0.061787  -0.005640   0.000000   0.025790   0.275613
   21  CL 2  Z    0.005640   0.061787   0.000000   0.275613  -0.025790
   22  CL 2  X    0.000000   0.000000  -0.030587   0.000000   0.000000
   23  CL 2  Y    0.007890  -0.000720   0.000000   0.008009   0.085594
   24  CL 2  Z    0.000720   0.007890   0.000000   0.085594  -0.008009
   25  CL 2  X    0.000000   0.000000   0.485975   0.000000   0.000000
   26  CL 2  Y   -0.197282   0.018008   0.000000  -0.123850  -1.323547
   27  CL 2  Z   -0.018008  -0.197282   0.000000  -1.323547   0.123850
   28  CL 2  X    0.000000   0.000000  -5.014580   0.000000   0.000000
   29  CL 2  Y   -0.552725   0.050454   0.000000   0.159635   1.705980
   30  CL 2  Z   -0.050454  -0.552725   0.000000   1.705980  -0.159635
   31  CL 2  S    0.000000   0.000000  -2.195461   0.000000   0.000000
   32  CL 2  X    0.000000   0.000000  -0.513112   0.000000   0.000000
   33  CL 2  Y   -0.239418   0.021855   0.000000  -0.045846  -0.489944
   34  CL 2  Z   -0.021855  -0.239418   0.000000  -0.489944   0.045846
   35  CL 2 XX    0.000000   0.000000   0.028833   0.000000   0.000000
   36  CL 2 YY    0.000000   0.000000  -0.014416   0.000000   0.000000
   37  CL 2 ZZ    0.000000   0.000000  -0.014416   0.000000   0.000000
   38  CL 2 XY   -0.029858   0.002726   0.000000   0.000267   0.002856
   39  CL 2 XZ   -0.002726  -0.029858   0.000000   0.002856  -0.000267
   40  CL 2 YZ    0.000000   0.000000   0.000000   0.000000   0.000000
   41  CL 2 XX    0.000000   0.000000   0.002463   0.000000   0.000000
   42  CL 2 YY    0.000000   0.000000  -0.001232   0.000000   0.000000
   43  CL 2 ZZ    0.000000   0.000000  -0.001232   0.000000   0.000000
   44  CL 2 XY   -0.068221   0.006227   0.000000  -0.000170  -0.001814
   45  CL 2 XZ   -0.006227  -0.068221   0.000000  -0.001814   0.000170
   46  CL 2 YZ    0.000000   0.000000   0.000000   0.000000   0.000000
   47  CL 2 XX    0.000000   0.000000  -1.318740   0.000000   0.000000
   48  CL 2 YY    0.000000   0.000000   0.659370   0.000000   0.000000
   49  CL 2 ZZ    0.000000   0.000000   0.659370   0.000000   0.000000
   50  CL 2 XY   -1.177411   0.107476   0.000000   0.027572   0.294650
   51  CL 2 XZ   -0.107476  -1.177411   0.000000   0.294650  -0.027572
   52  CL 2 YZ    0.000000   0.000000   0.000000   0.000000   0.000000
   53  CL 2 XXX   0.000000   0.000000  -0.051577   0.000000   0.000000
   54  CL 2 YYY   0.001486  -0.000136   0.000000   0.000775   0.008280
   55  CL 2 ZZZ   0.000136   0.001486   0.000000   0.008280  -0.000775
   56  CL 2 XXY  -0.002658   0.000243   0.000000  -0.001386  -0.014812
   57  CL 2 XXZ  -0.000243  -0.002658   0.000000  -0.014812   0.001386
   58  CL 2 YYX   0.000000   0.000000   0.034599   0.000000   0.000000
   59  CL 2 YYZ   0.000061   0.000665   0.000000   0.003703  -0.000347
   60  CL 2 ZZX   0.000000   0.000000   0.034599   0.000000   0.000000
   61  CL 2 ZZY   0.000665  -0.000061   0.000000   0.000347   0.003703
   62  CL 2 XYZ   0.000000   0.000000   0.000000   0.000000   0.000000

                     26         27         28         29         30
                    1.0488     1.0998     1.3179     1.3573     1.3573
                     A          A          A          A          A   
    1  H  1  S    0.742517  -0.251214  -0.517525   0.000000   0.000000
    2  H  1  S   -1.971443   3.403901  -4.951915   0.000000   0.000000
    3  H  1  S    1.074771   0.538855  -0.126476   0.000000   0.000000
    4  H  1  X   -0.018634  -0.013129  -0.002343   0.000000   0.000000
    5  H  1  Y    0.000000   0.000000   0.000000  -0.006480  -0.010911
    6  H  1  Z    0.000000   0.000000   0.000000  -0.010911   0.006480
    7  H  1  X    0.160451   0.136110   0.138809   0.000000   0.000000
    8  H  1  Y    0.000000   0.000000   0.000000   0.075987   0.127946
    9  H  1  Z    0.000000   0.000000   0.000000   0.127946  -0.075987
   10  H  1  X    0.387785  -2.124503   1.512263   0.000000   0.000000
   11  H  1  Y    0.000000   0.000000   0.000000   0.045346   0.076352
   12  H  1  Z    0.000000   0.000000   0.000000   0.076352  -0.045346
   13  CL 2  S   -0.023473   0.004024  -0.014122   0.000000   0.000000
   14  CL 2  S   -0.068741   0.011168  -0.039481   0.000000   0.000000
   15  CL 2  S    0.123002  -0.014160   0.051693   0.000000   0.000000
   16  CL 2  S    0.456083  -0.101018   0.359469   0.000000   0.000000
   17  CL 2  S   -1.957163   0.574987  -1.939182   0.000000   0.000000
   18  CL 2  S    3.129959  -3.303624   5.116226   0.000000   0.000000
   19  CL 2  X    0.096718   0.241123   0.014454   0.000000   0.000000
   20  CL 2  Y    0.000000   0.000000   0.000000   0.004167   0.007016
   21  CL 2  Z    0.000000   0.000000   0.000000   0.007016  -0.004167
   22  CL 2  X    0.000514   0.080145   0.015468   0.000000   0.000000
   23  CL 2  Y    0.000000   0.000000   0.000000  -0.000382  -0.000643
   24  CL 2  Z    0.000000   0.000000   0.000000  -0.000643   0.000382
   25  CL 2  X   -0.323067  -1.240934  -0.219341   0.000000   0.000000
   26  CL 2  Y    0.000000   0.000000   0.000000  -0.009324  -0.015699
   27  CL 2  Z    0.000000   0.000000   0.000000  -0.015699   0.009324
   28  CL 2  X    0.986422  -0.717240   3.300741   0.000000   0.000000
   29  CL 2  Y    0.000000   0.000000   0.000000  -0.029270  -0.049284
   30  CL 2  Z    0.000000   0.000000   0.000000  -0.049284   0.029270
   31  CL 2  S   -1.317337  -0.778615   0.700954   0.000000   0.000000
   32  CL 2  X   -0.264447  -0.714337   0.455836   0.000000   0.000000
   33  CL 2  Y    0.000000   0.000000   0.000000  -0.002787  -0.004693
   34  CL 2  Z    0.000000   0.000000   0.000000  -0.004693   0.002787
   35  CL 2 XX   -0.000589   0.027257  -0.116991   0.000000   0.000000
   36  CL 2 YY    0.000295  -0.013628   0.058496   0.000000   0.000000
   37  CL 2 ZZ    0.000295  -0.013628   0.058496   0.000000   0.000000
   38  CL 2 XY    0.000000   0.000000   0.000000   0.084003   0.141443
   39  CL 2 XZ    0.000000   0.000000   0.000000   0.141443  -0.084003
   40  CL 2 YZ    0.000000   0.000000   0.000000   0.000000   0.000000
   41  CL 2 XX    0.208096   0.079907  -0.660500   0.000000   0.000000
   42  CL 2 YY   -0.104048  -0.039953   0.330250   0.000000   0.000000
   43  CL 2 ZZ   -0.104048  -0.039953   0.330250   0.000000   0.000000
   44  CL 2 XY    0.000000   0.000000   0.000000   0.500566   0.842844
   45  CL 2 XZ    0.000000   0.000000   0.000000   0.842844  -0.500566
   46  CL 2 YZ    0.000000   0.000000   0.000000   0.000000   0.000000
   47  CL 2 XX   -0.208444  -0.424675   1.945121   0.000000   0.000000
   48  CL 2 YY    0.104222   0.212338  -0.972561   0.000000   0.000000
   49  CL 2 ZZ    0.104222   0.212338  -0.972561   0.000000   0.000000
   50  CL 2 XY    0.000000   0.000000   0.000000  -0.383220  -0.645259
   51  CL 2 XZ    0.000000   0.000000   0.000000  -0.645259   0.383220
   52  CL 2 YZ    0.000000   0.000000   0.000000   0.000000   0.000000
   53  CL 2 XXX   0.125668  -0.022660  -0.039134   0.000000   0.000000
   54  CL 2 YYY   0.000000   0.000000   0.000000  -0.012003  -0.020211
   55  CL 2 ZZZ   0.000000   0.000000   0.000000  -0.020211   0.012003
   56  CL 2 XXY   0.000000   0.000000   0.000000   0.021472   0.036154
   57  CL 2 XXZ   0.000000   0.000000   0.000000   0.036154  -0.021472
   58  CL 2 YYX  -0.084300   0.015201   0.026252   0.000000   0.000000
   59  CL 2 YYZ   0.000000   0.000000   0.000000  -0.009038   0.005368
   60  CL 2 ZZX  -0.084300   0.015201   0.026252   0.000000   0.000000
   61  CL 2 ZZY   0.000000   0.000000   0.000000  -0.005368  -0.009038
   62  CL 2 XYZ   0.000000   0.000000   0.000000   0.000000   0.000000

                     31         32         33         34         35
                    1.3882     1.3882     1.6831     2.3259     2.3259
                     A          A          A          A          A   
    1  H  1  S    0.000000   0.000000  -0.840134   0.000000   0.000000
    2  H  1  S    0.000000   0.000000  -5.246313   0.000000   0.000000
    3  H  1  S    0.000000   0.000000   0.265075   0.000000   0.000000
    4  H  1  X    0.000000   0.000000   0.020708   0.000000   0.000000
    5  H  1  Y    0.000000   0.000000   0.000000   0.031615   0.034744
    6  H  1  Z    0.000000   0.000000   0.000000   0.034744  -0.031615
    7  H  1  X    0.000000   0.000000  -0.215192   0.000000   0.000000
    8  H  1  Y    0.000000   0.000000   0.000000  -0.475812  -0.522899
    9  H  1  Z    0.000000   0.000000   0.000000  -0.522899   0.475812
   10  H  1  X    0.000000   0.000000   2.823048   0.000000   0.000000
   11  H  1  Y    0.000000   0.000000   0.000000   0.653833   0.718537
   12  H  1  Z    0.000000   0.000000   0.000000   0.718537  -0.653833
   13  CL 2  S    0.000000   0.000000  -0.011745   0.000000   0.000000
   14  CL 2  S    0.000000   0.000000  -0.032804   0.000000   0.000000
   15  CL 2  S    0.000000   0.000000   0.042481   0.000000   0.000000
   16  CL 2  S    0.000000   0.000000   0.310613   0.000000   0.000000
   17  CL 2  S    0.000000   0.000000  -1.798896   0.000000   0.000000
   18  CL 2  S    0.000000   0.000000   6.206849   0.000000   0.000000
   19  CL 2  X    0.000000   0.000000  -0.017550   0.000000   0.000000
   20  CL 2  Y    0.000000   0.000000   0.000000  -0.018079  -0.019868
   21  CL 2  Z    0.000000   0.000000   0.000000  -0.019868   0.018079
   22  CL 2  X    0.000000   0.000000   0.025605   0.000000   0.000000
   23  CL 2  Y    0.000000   0.000000   0.000000   0.005678   0.006240
   24  CL 2  Z    0.000000   0.000000   0.000000   0.006240  -0.005678
   25  CL 2  X    0.000000   0.000000  -0.037727   0.000000   0.000000
   26  CL 2  Y    0.000000   0.000000   0.000000   0.062391   0.068565
   27  CL 2  Z    0.000000   0.000000   0.000000   0.068565  -0.062391
   28  CL 2  X    0.000000   0.000000   3.827163   0.000000   0.000000
   29  CL 2  Y    0.000000   0.000000   0.000000  -0.270464  -0.297230
   30  CL 2  Z    0.000000   0.000000   0.000000  -0.297230   0.270464
   31  CL 2  S    0.000000   0.000000   0.029314   0.000000   0.000000
   32  CL 2  X    0.000000   0.000000  -0.040282   0.000000   0.000000
   33  CL 2  Y    0.000000   0.000000   0.000000  -0.049347  -0.054230
   34  CL 2  Z    0.000000   0.000000   0.000000  -0.054230   0.049347
   35  CL 2 XX    0.000000   0.000000   0.139696   0.000000   0.000000
   36  CL 2 YY    0.014467  -0.148293  -0.069848   0.000000   0.000000
   37  CL 2 ZZ   -0.014467   0.148293  -0.069848   0.000000   0.000000
   38  CL 2 XY    0.000000   0.000000   0.000000   0.038664   0.042490
   39  CL 2 XZ    0.000000   0.000000   0.000000   0.042490  -0.038664
   40  CL 2 YZ    0.171234   0.016705   0.000000   0.000000   0.000000
   41  CL 2 XX    0.000000   0.000000   0.659267   0.000000   0.000000
   42  CL 2 YY    0.084112  -0.862180  -0.329634   0.000000   0.000000
   43  CL 2 ZZ   -0.084112   0.862180  -0.329634   0.000000   0.000000
   44  CL 2 XY    0.000000   0.000000   0.000000   0.119880   0.131743
   45  CL 2 XZ    0.000000   0.000000   0.000000   0.131743  -0.119880
   46  CL 2 YZ    0.995560   0.097124   0.000000   0.000000   0.000000
   47  CL 2 XX    0.000000   0.000000   0.965413   0.000000   0.000000
   48  CL 2 YY   -0.054920   0.562951  -0.482707   0.000000   0.000000
   49  CL 2 ZZ    0.054920  -0.562951  -0.482707   0.000000   0.000000
   50  CL 2 XY    0.000000   0.000000   0.000000  -0.322952  -0.354912
   51  CL 2 XZ    0.000000   0.000000   0.000000  -0.354912   0.322952
   52  CL 2 YZ   -0.650040  -0.063416   0.000000   0.000000   0.000000
   53  CL 2 XXX   0.000000   0.000000  -0.291768   0.000000   0.000000
   54  CL 2 YYY   0.000000   0.000000   0.000000   0.315267   0.346466
   55  CL 2 ZZZ   0.000000   0.000000   0.000000   0.346466  -0.315267
   56  CL 2 XXY   0.000000   0.000000   0.000000  -0.563967  -0.619778
   57  CL 2 XXZ   0.000000   0.000000   0.000000  -0.619778   0.563967
   58  CL 2 YYX   0.000667  -0.006833   0.195724   0.000000   0.000000
   59  CL 2 YYZ   0.000000   0.000000   0.000000   0.154944  -0.140992
   60  CL 2 ZZX  -0.000667   0.006833   0.195724   0.000000   0.000000
   61  CL 2 ZZY   0.000000   0.000000   0.000000   0.140992   0.154944
   62  CL 2 XYZ   0.007890   0.000770   0.000000   0.000000   0.000000

                     36         37         38         39         40
                    2.3630     2.3630     2.3856     2.3856     2.8859
                     A          A          A          A          A   
    1  H  1  S    0.000000   0.000000   0.000000   0.000000  -0.881198
    2  H  1  S    0.000000   0.000000   0.000000   0.000000  -4.490322
    3  H  1  S    0.000000   0.000000   0.000000   0.000000  -0.332667
    4  H  1  X    0.000000   0.000000   0.000000   0.000000   0.030575
    5  H  1  Y    0.000000   0.000000   0.000000   0.000000   0.000000
    6  H  1  Z    0.000000   0.000000   0.000000   0.000000   0.000000
    7  H  1  X    0.000000   0.000000   0.000000   0.000000  -0.616056
    8  H  1  Y    0.000000   0.000000   0.000000   0.000000   0.000000
    9  H  1  Z    0.000000   0.000000   0.000000   0.000000   0.000000
   10  H  1  X    0.000000   0.000000   0.000000   0.000000   2.096905
   11  H  1  Y    0.000000   0.000000   0.000000   0.000000   0.000000
   12  H  1  Z    0.000000   0.000000   0.000000   0.000000   0.000000
   13  CL 2  S    0.000000   0.000000   0.000000   0.000000  -0.010189
   14  CL 2  S    0.000000   0.000000   0.000000   0.000000  -0.031391
   15  CL 2  S    0.000000   0.000000   0.000000   0.000000   0.071535
   16  CL 2  S    0.000000   0.000000   0.000000   0.000000   0.187558
   17  CL 2  S    0.000000   0.000000   0.000000   0.000000  -1.286595
   18  CL 2  S    0.000000   0.000000   0.000000   0.000000   4.513120
   19  CL 2  X    0.000000   0.000000   0.000000   0.000000   0.049912
   20  CL 2  Y    0.000000   0.000000   0.000000   0.000000   0.000000
   21  CL 2  Z    0.000000   0.000000   0.000000   0.000000   0.000000
   22  CL 2  X    0.000000   0.000000   0.000000   0.000000   0.026676
   23  CL 2  Y    0.000000   0.000000   0.000000   0.000000   0.000000
   24  CL 2  Z    0.000000   0.000000   0.000000   0.000000   0.000000
   25  CL 2  X    0.000000   0.000000   0.000000   0.000000  -0.351974
   26  CL 2  Y    0.000000   0.000000   0.000000   0.000000   0.000000
   27  CL 2  Z    0.000000   0.000000   0.000000   0.000000   0.000000
   28  CL 2  X    0.000000   0.000000   0.000000   0.000000   3.311965
   29  CL 2  Y    0.000000   0.000000   0.000000   0.000000   0.000000
   30  CL 2  Z    0.000000   0.000000   0.000000   0.000000   0.000000
   31  CL 2  S    0.000000   0.000000   0.000000   0.000000   0.927257
   32  CL 2  X    0.000000   0.000000   0.000000   0.000000   0.329862
   33  CL 2  Y    0.000000   0.000000   0.000000   0.000000   0.000000
   34  CL 2  Z    0.000000   0.000000   0.000000   0.000000   0.000000
   35  CL 2 XX    0.000000   0.000000   0.000000   0.000000   0.029158
   36  CL 2 YY    0.000073  -0.003052   0.000000   0.000000  -0.014579
   37  CL 2 ZZ   -0.000073   0.003052   0.000000   0.000000  -0.014579
   38  CL 2 XY    0.000000   0.000000   0.000000   0.000000   0.000000
   39  CL 2 XZ    0.000000   0.000000   0.000000   0.000000   0.000000
   40  CL 2 YZ   -0.003524  -0.000085   0.000000   0.000000   0.000000
   41  CL 2 XX    0.000000   0.000000   0.000000   0.000000  -0.108988
   42  CL 2 YY    0.000157  -0.006557   0.000000   0.000000   0.054494
   43  CL 2 ZZ   -0.000157   0.006557   0.000000   0.000000   0.054494
   44  CL 2 XY    0.000000   0.000000   0.000000   0.000000   0.000000
   45  CL 2 XZ    0.000000   0.000000   0.000000   0.000000   0.000000
   46  CL 2 YZ   -0.007571  -0.000182   0.000000   0.000000   0.000000
   47  CL 2 XX    0.000000   0.000000   0.000000   0.000000   1.376714
   48  CL 2 YY    0.000004  -0.000176   0.000000   0.000000  -0.688357
   49  CL 2 ZZ   -0.000004   0.000176   0.000000   0.000000  -0.688357
   50  CL 2 XY    0.000000   0.000000   0.000000   0.000000   0.000000
   51  CL 2 XZ    0.000000   0.000000   0.000000   0.000000   0.000000
   52  CL 2 YZ   -0.000203  -0.000005   0.000000   0.000000   0.000000
   53  CL 2 XXX   0.000000   0.000000   0.000000   0.000000   0.848498
   54  CL 2 YYY   0.000000   0.000000  -0.789297  -0.044844   0.000000
   55  CL 2 ZZZ   0.000000   0.000000   0.044844  -0.789297   0.000000
   56  CL 2 XXY   0.000000   0.000000   0.000000   0.000000   0.000000
   57  CL 2 XXZ   0.000000   0.000000   0.000000   0.000000   0.000000
   58  CL 2 YYX  -0.020774   0.865735   0.000000   0.000000  -0.569190
   59  CL 2 YYZ   0.000000   0.000000  -0.060165   1.058952   0.000000
   60  CL 2 ZZX   0.020774  -0.865735   0.000000   0.000000  -0.569190
   61  CL 2 ZZY   0.000000   0.000000   1.058952   0.060165   0.000000
   62  CL 2 XYZ   0.999664   0.023987   0.000000   0.000000   0.000000

                     41         42         43         44         45
                    2.9427     2.9427     3.4085     5.6289     5.6289
                     A          A          A          A          A   
    1  H  1  S    0.000000   0.000000  -0.935835   0.000000   0.000000
    2  H  1  S    0.000000   0.000000   0.641076   0.000000   0.000000
    3  H  1  S    0.000000   0.000000   0.230586   0.000000   0.000000
    4  H  1  X    0.000000   0.000000  -0.093718   0.000000   0.000000
    5  H  1  Y   -0.046558  -0.062241   0.000000   0.000000   0.000000
    6  H  1  Z   -0.062241   0.046558   0.000000   0.000000   0.000000
    7  H  1  X    0.000000   0.000000   1.526377   0.000000   0.000000
    8  H  1  Y    0.690729   0.923399   0.000000   0.000000   0.000000
    9  H  1  Z    0.923399  -0.690729   0.000000   0.000000   0.000000
   10  H  1  X    0.000000   0.000000  -0.998962   0.000000   0.000000
   11  H  1  Y   -0.287142  -0.383865   0.000000   0.000000   0.000000
   12  H  1  Z   -0.383865   0.287142   0.000000   0.000000   0.000000
   13  CL 2  S    0.000000   0.000000   0.009799   0.000000   0.000000
   14  CL 2  S    0.000000   0.000000   0.033226   0.000000   0.000000
   15  CL 2  S    0.000000   0.000000  -0.107321   0.000000   0.000000
   16  CL 2  S    0.000000   0.000000  -0.051405   0.000000   0.000000
   17  CL 2  S    0.000000   0.000000   0.049166   0.000000   0.000000
   18  CL 2  S    0.000000   0.000000  -0.278949   0.000000   0.000000
   19  CL 2  X    0.000000   0.000000  -0.148150   0.000000   0.000000
   20  CL 2  Y    0.010478   0.014008   0.000000   0.000000   0.000000
   21  CL 2  Z    0.014008  -0.010478   0.000000   0.000000   0.000000
   22  CL 2  X    0.000000   0.000000   0.063534   0.000000   0.000000
   23  CL 2  Y   -0.010389  -0.013888   0.000000   0.000000   0.000000
   24  CL 2  Z   -0.013888   0.010389   0.000000   0.000000   0.000000
   25  CL 2  X    0.000000   0.000000   0.380692   0.000000   0.000000
   26  CL 2  Y    0.000382   0.000510   0.000000   0.000000   0.000000
   27  CL 2  Z    0.000510  -0.000382   0.000000   0.000000   0.000000
   28  CL 2  X    0.000000   0.000000  -0.057921   0.000000   0.000000
   29  CL 2  Y    0.004511   0.006030   0.000000   0.000000   0.000000
   30  CL 2  Z    0.006030  -0.004511   0.000000   0.000000   0.000000
   31  CL 2  S    0.000000   0.000000  -0.287982   0.000000   0.000000
   32  CL 2  X    0.000000   0.000000  -0.080790   0.000000   0.000000
   33  CL 2  Y    0.042117   0.056304   0.000000   0.000000   0.000000
   34  CL 2  Z    0.056304  -0.042117   0.000000   0.000000   0.000000
   35  CL 2 XX    0.000000   0.000000   0.192043   0.000000   0.000000
   36  CL 2 YY    0.000000   0.000000  -0.096022   0.976567   0.006763
   37  CL 2 ZZ    0.000000   0.000000  -0.096022  -0.976567  -0.006763
   38  CL 2 XY   -0.044343  -0.059280   0.000000   0.000000   0.000000
   39  CL 2 XZ   -0.059280   0.044343   0.000000   0.000000   0.000000
   40  CL 2 YZ    0.000000   0.000000   0.000000  -0.007809   1.127643
   41  CL 2 XX    0.000000   0.000000   0.525831   0.000000   0.000000
   42  CL 2 YY    0.000000   0.000000  -0.262916  -0.679537  -0.004706
   43  CL 2 ZZ    0.000000   0.000000  -0.262916   0.679537   0.004706
   44  CL 2 XY   -0.067120  -0.089729   0.000000   0.000000   0.000000
   45  CL 2 XZ   -0.089729   0.067120   0.000000   0.000000   0.000000
   46  CL 2 YZ    0.000000   0.000000   0.000000   0.005434  -0.784662
   47  CL 2 XX    0.000000   0.000000   0.189516   0.000000   0.000000
   48  CL 2 YY    0.000000   0.000000  -0.094758   0.217506   0.001506
   49  CL 2 ZZ    0.000000   0.000000  -0.094758  -0.217506  -0.001506
   50  CL 2 XY    0.002119   0.002832   0.000000   0.000000   0.000000
   51  CL 2 XZ    0.002832  -0.002119   0.000000   0.000000   0.000000
   52  CL 2 YZ    0.000000   0.000000   0.000000  -0.001739   0.251154
   53  CL 2 XXX   0.000000   0.000000   0.859901   0.000000   0.000000
   54  CL 2 YYY   0.280158   0.374528   0.000000   0.000000   0.000000
   55  CL 2 ZZZ   0.374528  -0.280158   0.000000   0.000000   0.000000
   56  CL 2 XXY  -0.501161  -0.669976   0.000000   0.000000   0.000000
   57  CL 2 XXZ  -0.669976   0.501161   0.000000   0.000000   0.000000
   58  CL 2 YYX   0.000000   0.000000  -0.576839   0.001390   0.000010
   59  CL 2 YYZ   0.167494  -0.125290   0.000000   0.000000   0.000000
   60  CL 2 ZZX   0.000000   0.000000  -0.576839  -0.001390  -0.000010
   61  CL 2 ZZY   0.125290   0.167494   0.000000   0.000000   0.000000
   62  CL 2 XYZ   0.000000   0.000000   0.000000  -0.000011   0.001606

                     46         47         48         49         50
                    5.6575     5.6575     5.9020     6.5941     6.5941
                     A          A          A          A          A   
    1  H  1  S    0.000000   0.000000   0.391306   0.000000   0.000000
    2  H  1  S    0.000000   0.000000   0.286122   0.000000   0.000000
    3  H  1  S    0.000000   0.000000  -0.274343   0.000000   0.000000
    4  H  1  X    0.000000   0.000000   0.043971   0.000000   0.000000
    5  H  1  Y    0.000250   0.006899   0.000000   0.010497  -0.001447
    6  H  1  Z    0.006899  -0.000250   0.000000   0.001447   0.010497
    7  H  1  X    0.000000   0.000000  -0.374939   0.000000   0.000000
    8  H  1  Y    0.005791   0.159707   0.000000   0.058115  -0.008013
    9  H  1  Z    0.159707  -0.005791   0.000000   0.008013   0.058115
   10  H  1  X    0.000000   0.000000  -0.088760   0.000000   0.000000
   11  H  1  Y   -0.006075  -0.167540   0.000000  -0.105702   0.014574
   12  H  1  Z   -0.167540   0.006075   0.000000  -0.014574  -0.105702
   13  CL 2  S    0.000000   0.000000  -0.002272   0.000000   0.000000
   14  CL 2  S    0.000000   0.000000  -0.008931   0.000000   0.000000
   15  CL 2  S    0.000000   0.000000   0.041406   0.000000   0.000000
   16  CL 2  S    0.000000   0.000000  -0.032335   0.000000   0.000000
   17  CL 2  S    0.000000   0.000000   0.168817   0.000000   0.000000
   18  CL 2  S    0.000000   0.000000  -0.626373   0.000000   0.000000
   19  CL 2  X    0.000000   0.000000   0.155748   0.000000   0.000000
   20  CL 2  Y    0.000252   0.006955   0.000000  -0.401634   0.055377
   21  CL 2  Z    0.006955  -0.000252   0.000000  -0.055377  -0.401634
   22  CL 2  X    0.000000   0.000000  -0.442480   0.000000   0.000000
   23  CL 2  Y   -0.000646  -0.017818   0.000000   1.467681  -0.202362
   24  CL 2  Z   -0.017818   0.000646   0.000000   0.202362   1.467681
   25  CL 2  X    0.000000   0.000000   0.259173   0.000000   0.000000
   26  CL 2  Y    0.000190   0.005230   0.000000  -1.249244   0.172245
   27  CL 2  Z    0.005230  -0.000190   0.000000  -0.172245  -1.249244
   28  CL 2  X    0.000000   0.000000  -0.555936   0.000000   0.000000
   29  CL 2  Y    0.001809   0.049900   0.000000   0.597968  -0.082447
   30  CL 2  Z    0.049900  -0.001809   0.000000   0.082447   0.597968
   31  CL 2  S    0.000000   0.000000   0.313622   0.000000   0.000000
   32  CL 2  X    0.000000   0.000000   0.200074   0.000000   0.000000
   33  CL 2  Y    0.000643   0.017746   0.000000  -0.155982   0.021507
   34  CL 2  Z    0.017746  -0.000643   0.000000  -0.021507  -0.155982
   35  CL 2 XX    0.000000   0.000000   1.073250   0.000000   0.000000
   36  CL 2 YY    0.000000   0.000000  -0.536625   0.000000   0.000000
   37  CL 2 ZZ    0.000000   0.000000  -0.536625   0.000000   0.000000
   38  CL 2 XY    0.040827   1.125956   0.000000   0.015057  -0.002076
   39  CL 2 XZ    1.125956  -0.040827   0.000000   0.002076   0.015057
   40  CL 2 YZ    0.000000   0.000000   0.000000   0.000000   0.000000
   41  CL 2 XX    0.000000   0.000000  -0.944227   0.000000   0.000000
   42  CL 2 YY    0.000000   0.000000   0.472113   0.000000   0.000000
   43  CL 2 ZZ    0.000000   0.000000   0.472113   0.000000   0.000000
   44  CL 2 XY   -0.029167  -0.804386   0.000000  -0.020196   0.002785
   45  CL 2 XZ   -0.804386   0.029167   0.000000  -0.002785  -0.020196
   46  CL 2 YZ    0.000000   0.000000   0.000000   0.000000   0.000000
   47  CL 2 XX    0.000000   0.000000   0.104117   0.000000   0.000000
   48  CL 2 YY    0.000000   0.000000  -0.052058   0.000000   0.000000
   49  CL 2 ZZ    0.000000   0.000000  -0.052058   0.000000   0.000000
   50  CL 2 XY    0.011406   0.314561   0.000000   0.054832  -0.007560
   51  CL 2 XZ    0.314561  -0.011406   0.000000   0.007560   0.054832
   52  CL 2 YZ    0.000000   0.000000   0.000000   0.000000   0.000000
   53  CL 2 XXX   0.000000   0.000000  -0.213302   0.000000   0.000000
   54  CL 2 YYY   0.000511   0.014102   0.000000  -0.001414   0.000195
   55  CL 2 ZZZ   0.014102  -0.000511   0.000000  -0.000195  -0.001414
   56  CL 2 XXY  -0.000915  -0.025226   0.000000   0.002529  -0.000349
   57  CL 2 XXZ  -0.025226   0.000915   0.000000   0.000349   0.002529
   58  CL 2 YYX   0.000000   0.000000   0.143088   0.000000   0.000000
   59  CL 2 YYZ   0.006306  -0.000229   0.000000  -0.000087  -0.000632
   60  CL 2 ZZX   0.000000   0.000000   0.143088   0.000000   0.000000
   61  CL 2 ZZY   0.000229   0.006306   0.000000  -0.000632   0.000087
   62  CL 2 XYZ   0.000000   0.000000   0.000000   0.000000   0.000000

                     51         52         53         54         55
                    7.0571     9.7835    11.5394    11.5394    11.9393
                     A          A          A          A          A   
    1  H  1  S    0.440520   0.020067   0.000000   0.000000   0.125699
    2  H  1  S   -0.334284  -1.870536   0.000000   0.000000  -1.835780
    3  H  1  S   -0.064857   0.206277   0.000000   0.000000  -0.157622
    4  H  1  X    0.043454  -0.171819   0.000000   0.000000   1.312511
    5  H  1  Y    0.000000   0.000000   0.416441   1.206129   0.000000
    6  H  1  Z    0.000000   0.000000   1.206129  -0.416441   0.000000
    7  H  1  X   -0.620707  -0.178850   0.000000   0.000000  -1.216863
    8  H  1  Y    0.000000   0.000000  -0.294836  -0.853929   0.000000
    9  H  1  Z    0.000000   0.000000  -0.853929   0.294836   0.000000
   10  H  1  X    0.185133   0.771740   0.000000   0.000000   1.165670
   11  H  1  Y    0.000000   0.000000   0.128550   0.372317   0.000000
   12  H  1  Z    0.000000   0.000000   0.372317  -0.128550   0.000000
   13  CL 2  S   -0.012717   0.105301   0.000000   0.000000   0.018326
   14  CL 2  S   -0.051726   0.448104   0.000000   0.000000   0.080334
   15  CL 2  S    0.260329  -2.601031   0.000000   0.000000  -0.516097
   16  CL 2  S   -0.231900   3.175647   0.000000   0.000000   0.754291
   17  CL 2  S    0.108780  -2.213098   0.000000   0.000000  -0.808542
   18  CL 2  S   -0.120160   2.665405   0.000000   0.000000   1.846645
   19  CL 2  X   -0.346402  -0.023502   0.000000   0.000000   0.011951
   20  CL 2  Y    0.000000   0.000000   0.001102   0.003192   0.000000
   21  CL 2  Z    0.000000   0.000000   0.003192  -0.001102   0.000000
   22  CL 2  X    1.468574   0.176167   0.000000   0.000000   0.137095
   23  CL 2  Y    0.000000   0.000000  -0.013779  -0.039907   0.000000
   24  CL 2  Z    0.000000   0.000000  -0.039907   0.013779   0.000000
   25  CL 2  X   -1.465968  -0.260536   0.000000   0.000000  -0.372176
   26  CL 2  Y    0.000000   0.000000   0.019847   0.057481   0.000000
   27  CL 2  Z    0.000000   0.000000   0.057481  -0.019847   0.000000
   28  CL 2  X    0.555081   1.210849   0.000000   0.000000   1.184288
   29  CL 2  Y    0.000000   0.000000  -0.033187  -0.096118   0.000000
   30  CL 2  Z    0.000000   0.000000  -0.096118   0.033187   0.000000
   31  CL 2  S    0.217713  -0.172384   0.000000   0.000000   0.355076
   32  CL 2  X   -0.052235   0.033709   0.000000   0.000000   0.124305
   33  CL 2  Y    0.000000   0.000000  -0.012164  -0.035231   0.000000
   34  CL 2  Z    0.000000   0.000000  -0.035231   0.012164   0.000000
   35  CL 2 XX    0.380727   0.065837   0.000000   0.000000   0.021119
   36  CL 2 YY   -0.190363  -0.032918   0.000000   0.000000  -0.010559
   37  CL 2 ZZ   -0.190363  -0.032918   0.000000   0.000000  -0.010559
   38  CL 2 XY    0.000000   0.000000  -0.014274  -0.041342   0.000000
   39  CL 2 XZ    0.000000   0.000000  -0.041342   0.014274   0.000000
   40  CL 2 YZ    0.000000   0.000000   0.000000   0.000000   0.000000
   41  CL 2 XX   -0.556349  -0.123101   0.000000   0.000000  -0.238039
   42  CL 2 YY    0.278174   0.061551   0.000000   0.000000   0.119019
   43  CL 2 ZZ    0.278174   0.061551   0.000000   0.000000   0.119019
   44  CL 2 XY    0.000000   0.000000   0.031580   0.091464   0.000000
   45  CL 2 XZ    0.000000   0.000000   0.091464  -0.031580   0.000000
   46  CL 2 YZ    0.000000   0.000000   0.000000   0.000000   0.000000
   47  CL 2 XX    0.096638   0.431594   0.000000   0.000000   0.369492
   48  CL 2 YY   -0.048319  -0.215797   0.000000   0.000000  -0.184746
   49  CL 2 ZZ   -0.048319  -0.215797   0.000000   0.000000  -0.184746
   50  CL 2 XY    0.000000   0.000000  -0.033058  -0.095746   0.000000
   51  CL 2 XZ    0.000000   0.000000  -0.095746   0.033058   0.000000
   52  CL 2 YZ    0.000000   0.000000   0.000000   0.000000   0.000000
   53  CL 2 XXX  -0.266565  -0.052118   0.000000   0.000000  -0.092900
   54  CL 2 YYY   0.000000   0.000000  -0.016442  -0.047620   0.000000
   55  CL 2 ZZZ   0.000000   0.000000  -0.047620   0.016442   0.000000
   56  CL 2 XXY   0.000000   0.000000   0.029412   0.085185   0.000000
   57  CL 2 XXZ   0.000000   0.000000   0.085185  -0.029412   0.000000
   58  CL 2 YYX   0.178817   0.034961   0.000000   0.000000   0.062319
   59  CL 2 YYZ   0.000000   0.000000  -0.021296   0.007353   0.000000
   60  CL 2 ZZX   0.178817   0.034961   0.000000   0.000000   0.062319
   61  CL 2 ZZY   0.000000   0.000000  -0.007353  -0.021296   0.000000
   62  CL 2 XYZ   0.000000   0.000000   0.000000   0.000000   0.000000

                     56
                  222.3668
                     A   
    1  H  1  S   -0.003259
    2  H  1  S   -0.456283
    3  H  1  S    0.041052
    4  H  1  X    0.017092
    5  H  1  Y    0.000000
    6  H  1  Z    0.000000
    7  H  1  X   -0.063128
    8  H  1  Y    0.000000
    9  H  1  Z    0.000000
   10  H  1  X    0.197899
   11  H  1  Y    0.000000
   12  H  1  Z    0.000000
   13  CL 2  S   -1.516688
   14  CL 2  S    1.840732
   15  CL 2  S   -1.391627
   16  CL 2  S    0.975295
   17  CL 2  S   -0.504432
   18  CL 2  S    0.630281
   19  CL 2  X    0.000929
   20  CL 2  Y    0.000000
   21  CL 2  Z    0.000000
   22  CL 2  X    0.015185
   23  CL 2  Y    0.000000
   24  CL 2  Z    0.000000
   25  CL 2  X   -0.038299
   26  CL 2  Y    0.000000
   27  CL 2  Z    0.000000
   28  CL 2  X    0.288931
   29  CL 2  Y    0.000000
   30  CL 2  Z    0.000000
   31  CL 2  S   -0.028874
   32  CL 2  X    0.012772
   33  CL 2  Y    0.000000
   34  CL 2  Z    0.000000
   35  CL 2 XX    0.005013
   36  CL 2 YY   -0.002507
   37  CL 2 ZZ   -0.002507
   38  CL 2 XY    0.000000
   39  CL 2 XZ    0.000000
   40  CL 2 YZ    0.000000
   41  CL 2 XX   -0.018702
   42  CL 2 YY    0.009351
   43  CL 2 ZZ    0.009351
   44  CL 2 XY    0.000000
   45  CL 2 XZ    0.000000
   46  CL 2 YZ    0.000000
   47  CL 2 XX    0.103269
   48  CL 2 YY   -0.051635
   49  CL 2 ZZ   -0.051635
   50  CL 2 XY    0.000000
   51  CL 2 XZ    0.000000
   52  CL 2 YZ    0.000000
   53  CL 2 XXX  -0.006666
   54  CL 2 YYY   0.000000
   55  CL 2 ZZZ   0.000000
   56  CL 2 XXY   0.000000
   57  CL 2 XXZ   0.000000
   58  CL 2 YYX   0.004471
   59  CL 2 YYZ   0.000000
   60  CL 2 ZZX   0.004471
   61  CL 2 ZZY   0.000000
   62  CL 2 XYZ   0.000000
 ...... END OF RHF CALCULATION ......
 STEP CPU TIME =    18.70 TOTAL CPU TIME =       19.2 (    0.3 MIN)
 TOTAL WALL CLOCK TIME=       26.0 SECONDS, CPU UTILIZATION IS  74.00%

     ----------------------------------------------------------------
     PROPERTY VALUES FOR THE RHF   SELF-CONSISTENT FIELD WAVEFUNCTION
     ----------------------------------------------------------------

          ---------------------------------------
          MULLIKEN AND LOWDIN POPULATION ANALYSES
          ---------------------------------------

               ----- POPULATIONS IN EACH AO -----
                             MULLIKEN      LOWDIN
              1  H  1  S      0.45822     0.37681
              2  H  1  S      0.17688     0.25720
              3  H  1  S      0.00646     0.03098
              4  H  1  X      0.00039     0.00104
              5  H  1  Y      0.00008     0.00022
              6  H  1  Z      0.00008     0.00022
              7  H  1  X      0.01414     0.02070
              8  H  1  Y      0.00465     0.00639
              9  H  1  Z      0.00465     0.00639
             10  H  1  X     -0.00015     0.09299
             11  H  1  Y      0.01694     0.08422
             12  H  1  Z      0.01694     0.08422
             13  CL 2  S      0.74365     0.87653
             14  CL 2  S      1.22483     1.10223
             15  CL 2  S      0.99336     0.95712
             16  CL 2  S      0.99152     0.72988
             17  CL 2  S      1.04223     0.37330
             18  CL 2  S      0.93217     0.36542
             19  CL 2  X      1.78861     1.74007
             20  CL 2  Y      1.80678     1.76225
             21  CL 2  Z      1.80678     1.76225
             22  CL 2  X      0.22231     0.28293
             23  CL 2  Y      0.21871     0.30634
             24  CL 2  Z      0.21871     0.30634
             25  CL 2  X      0.67356     0.35963
             26  CL 2  Y      0.91597     0.47598
             27  CL 2  Z      0.91597     0.47598
             28  CL 2  X      0.65684     0.44306
             29  CL 2  Y      0.98617     0.59033
             30  CL 2  Z      0.98617     0.59033
             31  CL 2  S      0.01739     0.06956
             32  CL 2  X      0.00129     0.06904
             33  CL 2  Y      0.04926     0.10794
             34  CL 2  Z      0.04926     0.10794
             35  CL 2 XX      0.00041     0.12431
             36  CL 2 YY      0.00124     0.12331
             37  CL 2 ZZ      0.00003     0.12331
             38  CL 2 XY      0.00003     0.00004
             39  CL 2 XZ      0.00000     0.00004
             40  CL 2 YZ      0.00000     0.00000
             41  CL 2 XX      0.00579     0.26148
             42  CL 2 YY      0.01738     0.25026
             43  CL 2 ZZ      0.00044     0.25026
             44  CL 2 XY      0.00044     0.00021
             45  CL 2 XZ      0.00000     0.00021
             46  CL 2 YZ      0.00000     0.00000
             47  CL 2 XX      0.00709     0.08755
             48  CL 2 YY      0.02128     0.05927
             49  CL 2 ZZ      0.00073     0.05927
             50  CL 2 XY      0.00073     0.00011
             51  CL 2 XZ      0.00000     0.00011
             52  CL 2 YZ      0.00000     0.00000
             53  CL 2 XXX     0.00194     0.31647
             54  CL 2 YYY     0.00015     0.35097
             55  CL 2 ZZZ     0.00116     0.35097
             56  CL 2 XXY     0.00009     0.15914
             57  CL 2 XXZ     0.00002     0.15914
             58  CL 2 YYX     0.00000     0.09801
             59  CL 2 YYZ     0.00023     0.15587
             60  CL 2 ZZX     0.00000     0.09801
             61  CL 2 ZZY     0.00000     0.15587
             62  CL 2 XYZ     0.00000     0.00000

          ----- MULLIKEN ATOMIC OVERLAP POPULATIONS -----
          (OFF-DIAGONAL ELEMENTS NEED TO BE MULTIPLIED BY 2)

             1           2

    1    0.3704057
    2    0.3288800  16.9718343

          TOTAL MULLIKEN AND LOWDIN ATOMIC POPULATIONS
       ATOM         MULL.POP.    CHARGE          LOW.POP.     CHARGE
    1 H             0.699286    0.300714         0.961374    0.038626
    2 CL           17.300714   -0.300714        17.038626   -0.038626

          MULLIKEN SPHERICAL HARMONIC POPULATIONS
       ATOM           S       P       D      F      G      H      I    TOTAL
    1 H             0.64    0.06    0.00   0.00   0.00   0.00   0.00    0.70
    2 CL            5.95   11.30    0.06   0.00   0.00   0.00   0.00   17.30

          -------------------------------
          BOND ORDER AND VALENCE ANALYSIS     BOND ORDER THRESHOLD=0.050
          -------------------------------

                   BOND                       BOND                       BOND
  ATOM PAIR DIST  ORDER      ATOM PAIR DIST  ORDER      ATOM PAIR DIST  ORDER
    1   2  1.266  0.941

                       TOTAL       BONDED        FREE
      ATOM            VALENCE     VALENCE     VALENCE
    1 H                 0.941       0.941       0.000
    2 CL                0.941       0.941       0.000

          ---------------------
          ELECTROSTATIC MOMENTS
          ---------------------

 POINT   1           X           Y           Z (BOHR)    CHARGE
                -1.128785    0.000000    0.000000        0.00 (A.U.)
         DX          DY          DZ         /D/  (DEBYE)
     1.189803    0.000000    0.000000    1.189803
 ...... END OF PROPERTY EVALUATION ......
 STEP CPU TIME =     0.08 TOTAL CPU TIME =       19.3 (    0.3 MIN)
 TOTAL WALL CLOCK TIME=       26.0 SECONDS, CPU UTILIZATION IS  74.31%

     ---------------------------
     COUPLED CLUSTER CALCULATION
     ---------------------------
 CCTYP                        =CCSD(T) 
 TOTAL NUMBER OF MOS          =    56
 NUMBER OF OCCUPIED MOS       =     9
 NUMBER OF FROZEN CORE MOS    =     5
 NUMBER OF FROZEN VIRTUAL MOS =     0
 MAXIMUM CC ITERATIONS        =    30
 MAXIMUM DIIS ITERATIONS      =     5
 CONVERGENCE CRITERION FOR CC =     7
 AMPLITUDE ACCURACY THRESHOLD = 0.0E+00

     --------------------------------------------
     PARTIAL TWO ELECTRON INTEGRAL TRANSFORMATION
     --------------------------------------------

 NUMBER OF CORE MOLECULAR ORBITALS     =    5
 NUMBER OF OCCUPIED MOLECULAR ORBITALS =   56
 TOTAL NUMBER OF MOLECULAR ORBITALS    =   56
 TOTAL NUMBER OF ATOMIC ORBITALS       =   62
 THRESHOLD FOR KEEPING TRANSFORMED 2E- INTEGRALS = 1.000E-09
 AO INTEGRALS WILL BE CALCULATED IN DIRECT MODE...
 EVALUATING THE FROZEN CORE ENERGY...
 ----- FROZEN CORE ENERGY =      -448.8932026726
 # OF WORDS AVAILABLE =    5999976
 # OF WORDS NEEDED    =    6307372 FOR IN MEMORY TRANSFORMATION
 FOR THE SEGMENTED TRANSFORMATION:
 MINIMUM=    253072 WORDS FOR 1 MOLECULAR ORBITAL PER PASS
 MAXIMUM=   6307372 WORDS FOR ALL MOLECULAR ORBITALS IN 1 PASS
        (    121086 EXTRA WORDS WOULD INCLUDE AN EXTRA ORBITAL/PASS)
 SEGMENTED PARTIAL TRANSFORMATION WOULD USE   3280222 WORDS,
 DISTRIBUTING   2 PASSES EACH CONTAINING  26 ORBITALS OVER   1 PROCESSORS.

 CHOOSING SEGMENTED PARTIAL TRANSFORMATION...
 DIRECT TRANSFORMATION SKIPS AO INTEGRAL STORAGE ON DISK.
 PASS #   1 TOOK        5.03 SECONDS.
 DIRECT TRANSFORMATION SKIPS AO INTEGRAL STORAGE ON DISK.
 PASS #   2 TOOK        5.91 SECONDS.
 TOTAL NUMBER OF TRANSFORMED 2E- INTEGRALS KEPT =    369976
 ... END OF INTEGRAL TRANSFORMATION ...
 STEP CPU TIME =    12.65 TOTAL CPU TIME =       32.0 (    0.5 MIN)
 TOTAL WALL CLOCK TIME=       40.0 SECONDS, CPU UTILIZATION IS  79.92%

   -----------------------
   COUPLED-CLUSTER PROGRAM
   -----------------------

   -------------------------------------------------------
   P.PIECUCH, S.A.KUCHARSKI, M.WLOCH, K.KOWALSKI, M.MUSIAL
   -------------------------------------------------------

 *****************************************************************
 THE FOLLOWING PAPERS SHOULD BE CITED WHEN USING COUPLED-CLUSTER
 OPTIONS:

 CCTYP = LCCD, CCD, CCSD, CCSD(T)
 P. PIECUCH, S.A. KUCHARSKI, K. KOWALSKI, AND M. MUSIAL,
 COMP. PHYS. COMMUN. 149, 71-96 (2002).

 CCTYP = R-CC, CR-CC, CCSD(TQ), CR-CC(Q)
 P. PIECUCH, S.A. KUCHARSKI, K. KOWALSKI, AND M. MUSIAL,
 COMP. PHYS. COMMUN. 149, 71-96 (2002);
 K. KOWALSKI AND P. PIECUCH, J. CHEM. PHYS. 113, 18-35 (2000);
 K. KOWALSKI AND P. PIECUCH, J. CHEM. PHYS. 113, 5644-5652 (2000).

 CCTYP = EOM-CCSD, CR-EOM
 P. PIECUCH, S.A. KUCHARSKI, K. KOWALSKI, AND M. MUSIAL,
 COMP. PHYS. COMMUN. 149, 71-96 (2002);
 K. KOWALSKI AND P. PIECUCH, J. CHEM. PHYS. 120, 1715-1738 (2004);
 M. WLOCH, J.R. GOUR, K. KOWALSKI, AND P. PIECUCH,
 J. CHEM. PHYS. 122, 214107-1 - 214107-15 (2005).

 CCTYP = CR-CCL
 P. PIECUCH, S.A. KUCHARSKI, K. KOWALSKI, AND M. MUSIAL,
 COMP. PHYS. COMMUN. 149, 71-96 (2002);
 P. PIECUCH AND M. WLOCH, J. CHEM. PHYS. 123,
 224105-1 - 224105-10 (2005).

 IN ADDITION, THE USE OF CCPRP=.TRUE. IN $CCINP AND/OR THE USE
 OF CCPRPE=.TRUE. IN $EOMINP SHOULD REFERENCE

 M. WLOCH, J.R. GOUR, K. KOWALSKI, AND P. PIECUCH,
 J. CHEM. PHYS. 122, 214107-1 - 214107-15 (2005).
 *****************************************************************


 THE FOLLOWING CALCULATIONS WILL BE PERFORMED:
                                                     CCSD   
                                                     CCSD[T]
                                                     CCSD(T)

 THE FOLLOWING ENERGY WILL BE CONSIDERED THE HIGHEST LEVEL:    CCSD(T)
 THE AVAILABLE REPLICATED MEMORY IS     5999976 WORDS.
 CONVERGENCE THRESHOLD:   1.0E-07
 MAXIMUM NUMBER OF ITERATIONS:   30

 MEMORY TO BE USED IN CC INTEGRAL SORTING IS     5013504 WORDS.
 THE MINIMUM MEMORY TO ACCOMPLISH SORTING IS      549115 WORDS.
       369976 NON-ZERO TRANSFORMED 2E- INTEGRALS WERE SORTED INTO FILE 72:
           22 [IJ|KL] TYPE,         762 [AJ|KL] TYPE,
         4757 [AB|IJ] TYPE,        7585 [IA|BJ] TYPE,
        90682 [AB|CI] TYPE,      266168 [AB|CD] TYPE.
 TRANSFORMED INTEGRAL FILE  9 WAS READ    3 TIMES.
 ....... DONE WITH CC INTEGRAL PREPARATION .......
 STEP CPU TIME =     3.07 TOTAL CPU TIME =       35.0 (    0.6 MIN)
 TOTAL WALL CLOCK TIME=       48.0 SECONDS, CPU UTILIZATION IS  73.00%

 MEMORY REQUIRED FOR THE CCSD ITERATIONS IS      666544 WORDS.
[...]
   54  CL 2 YYY   0.000000   0.000000   0.000000   0.000011  -0.000084
   55  CL 2 ZZZ   0.000000   0.000000   0.000000  -0.000084  -0.000011
   56  CL 2 XXY   0.000000   0.000000   0.000000  -0.000020   0.000150
   57  CL 2 XXZ   0.000000   0.000000   0.000000   0.000150   0.000020
   58  CL 2 YYX  -0.000004   0.000180   0.000437   0.000000   0.000000
   59  CL 2 YYZ   0.000000   0.000000   0.000000  -0.000037  -0.000005
   60  CL 2 ZZX  -0.000004   0.000180   0.000437   0.000000   0.000000
   61  CL 2 ZZY   0.000000   0.000000   0.000000   0.000005  -0.000037
   62  CL 2 XYZ   0.000000   0.000000   0.000000   0.000000   0.000000

                      6          7          8          9         10
                   -1.1210    -0.6288    -0.4782    -0.4782     0.0412
                     A          A          A          A          A   
    1  H  1  S   -0.139757   0.268820   0.000000   0.000000   0.025179
    2  H  1  S   -0.019838   0.155065   0.000000   0.000000   0.184221
    3  H  1  S   -0.002414   0.022736   0.000000   0.000000   2.597529
    4  H  1  X    0.001532  -0.001548   0.000000   0.000000   0.000597
    5  H  1  Y    0.000000   0.000000   0.000821  -0.000078   0.000000
    6  H  1  Z    0.000000   0.000000  -0.000078  -0.000821   0.000000
    7  H  1  X    0.016587  -0.018335   0.000000   0.000000   0.010613
    8  H  1  Y    0.000000   0.000000   0.012060  -0.001142   0.000000
    9  H  1  Z    0.000000   0.000000  -0.001142  -0.012060   0.000000
   10  H  1  X   -0.002438  -0.006334   0.000000   0.000000   0.003098
   11  H  1  Y    0.000000   0.000000   0.017316  -0.001639   0.000000
   12  H  1  Z    0.000000   0.000000  -0.001639  -0.017316   0.000000
   13  CL 2  S   -0.033279  -0.009780   0.000000   0.000000  -0.005087
   14  CL 2  S   -0.101710  -0.030107   0.000000   0.000000  -0.015554
   15  CL 2  S    0.223584   0.068334   0.000000   0.000000   0.034333
   16  CL 2  S    0.365958   0.109358   0.000000   0.000000   0.062558
   17  CL 2  S   -0.618707  -0.201063   0.000000   0.000000  -0.135129
   18  CL 2  S   -0.493253  -0.208405   0.000000   0.000000  -0.070605
   19  CL 2  X    0.028614  -0.201033   0.000000   0.000000   0.040904
   20  CL 2  Y    0.000000   0.000000  -0.242301   0.022941   0.000000
   21  CL 2  Z    0.000000   0.000000   0.022941   0.242301   0.000000
   22  CL 2  X    0.004407  -0.019111   0.000000   0.000000   0.003822
   23  CL 2  Y    0.000000   0.000000  -0.018764   0.001777   0.000000
   24  CL 2  Z    0.000000   0.000000   0.001777   0.018764   0.000000
   25  CL 2  X   -0.054907   0.433276   0.000000   0.000000  -0.096415
   26  CL 2  Y    0.000000   0.000000   0.536290  -0.050775   0.000000
   27  CL 2  Z    0.000000   0.000000  -0.050775  -0.536290   0.000000
   28  CL 2  X   -0.046201   0.373558   0.000000   0.000000  -0.122700
   29  CL 2  Y    0.000000   0.000000   0.540557  -0.051179   0.000000
   30  CL 2  Z    0.000000   0.000000  -0.051179  -0.540557   0.000000
   31  CL 2  S   -0.009655  -0.037244   0.000000   0.000000  -1.763738
   32  CL 2  X    0.001397   0.001844   0.000000   0.000000  -0.760233
   33  CL 2  Y    0.000000   0.000000   0.051302  -0.004857   0.000000
   34  CL 2  Z    0.000000   0.000000  -0.004857  -0.051302   0.000000
   35  CL 2 XX   -0.003931   0.013331   0.000000   0.000000   0.001072
   36  CL 2 YY    0.001966  -0.006665   0.000000   0.000000  -0.000536
   37  CL 2 ZZ    0.001966  -0.006665   0.000000   0.000000  -0.000536
   38  CL 2 XY    0.000000   0.000000   0.001658  -0.000157   0.000000
   39  CL 2 XZ    0.000000   0.000000  -0.000157  -0.001658   0.000000
   40  CL 2 YZ    0.000000   0.000000   0.000000   0.000000   0.000000
   41  CL 2 XX   -0.019742   0.055368   0.000000   0.000000   0.009495
   42  CL 2 YY    0.009871  -0.027684   0.000000   0.000000  -0.004747
   43  CL 2 ZZ    0.009871  -0.027684   0.000000   0.000000  -0.004747
   44  CL 2 XY    0.000000   0.000000   0.009479  -0.000897   0.000000
   45  CL 2 XZ    0.000000   0.000000  -0.000897  -0.009479   0.000000
   46  CL 2 YZ    0.000000   0.000000   0.000000   0.000000   0.000000
   47  CL 2 XX   -0.012585   0.051758   0.000000   0.000000  -0.024841
   48  CL 2 YY    0.006293  -0.025879   0.000000   0.000000   0.012420
   49  CL 2 ZZ    0.006293  -0.025879   0.000000   0.000000   0.012420
   50  CL 2 XY    0.000000   0.000000   0.011607  -0.001099   0.000000
   51  CL 2 XZ    0.000000   0.000000  -0.001099  -0.011607   0.000000
   52  CL 2 YZ    0.000000   0.000000   0.000000   0.000000   0.000000
   53  CL 2 XXX  -0.005690   0.012950   0.000000   0.000000  -0.000512
   54  CL 2 YYY   0.000000   0.000000  -0.004859   0.000460   0.000000
   55  CL 2 ZZZ   0.000000   0.000000   0.000460   0.004859   0.000000
   56  CL 2 XXY   0.000000   0.000000   0.008693  -0.000823   0.000000
   57  CL 2 XXZ   0.000000   0.000000  -0.000823  -0.008693   0.000000
   58  CL 2 YYX   0.003817  -0.008687   0.000000   0.000000   0.000343
   59  CL 2 YYZ   0.000000   0.000000   0.000206   0.002173   0.000000
   60  CL 2 ZZX   0.003817  -0.008687   0.000000   0.000000   0.000343
   61  CL 2 ZZY   0.000000   0.000000  -0.002173   0.000206   0.000000
   62  CL 2 XYZ   0.000000   0.000000   0.000000   0.000000   0.000000

                     11         12         13         14         15
                    0.1331     0.1477     0.1477     0.1913     0.2160
                     A          A          A          A          A   
    1  H  1  S    0.058934   0.000000   0.000000   0.113745  -0.194332
    2  H  1  S    0.268016   0.000000   0.000000   2.567884  -0.887910
    3  H  1  S   -0.247057   0.000000   0.000000   2.899858   2.213233
    4  H  1  X    0.001216   0.000000   0.000000  -0.001484  -0.005130
    5  H  1  Y    0.000000  -0.000864   0.000151   0.000000   0.000000
    6  H  1  Z    0.000000  -0.000151  -0.000864   0.000000   0.000000
    7  H  1  X   -0.012533   0.000000   0.000000   0.006146   0.006932
    8  H  1  Y    0.000000   0.004949  -0.000864   0.000000   0.000000
    9  H  1  Z    0.000000   0.000864   0.004949   0.000000   0.000000
   10  H  1  X    0.043784   0.000000   0.000000  -0.533692  -0.067935
   11  H  1  Y    0.000000  -0.013439   0.002346   0.000000   0.000000
   12  H  1  Z    0.000000  -0.002346  -0.013439   0.000000   0.000000
   13  CL 2  S   -0.006150   0.000000   0.000000   0.004520   0.008644
   14  CL 2  S   -0.019466   0.000000   0.000000   0.014042   0.027130
   15  CL 2  S    0.048996   0.000000   0.000000  -0.032972  -0.066284
   16  CL 2  S    0.054240   0.000000   0.000000  -0.050492  -0.083226
   17  CL 2  S   -0.039033   0.000000   0.000000   0.145237   0.064521
   18  CL 2  S   -0.536099   0.000000   0.000000  -0.380766   0.852655
   19  CL 2  X   -0.027681   0.000000   0.000000   0.030321  -0.129136
   20  CL 2  Y    0.000000   0.070676  -0.012336   0.000000   0.000000
   21  CL 2  Z    0.000000   0.012336   0.070676   0.000000   0.000000
   22  CL 2  X    0.005194   0.000000   0.000000  -0.002751  -0.002103
   23  CL 2  Y    0.000000  -0.005991   0.001046   0.000000   0.000000
   24  CL 2  Z    0.000000  -0.001046  -0.005991   0.000000   0.000000
   25  CL 2  X    0.032405   0.000000   0.000000  -0.035956   0.253126
   26  CL 2  Y    0.000000  -0.113300   0.019776   0.000000   0.000000
   27  CL 2  Z    0.000000  -0.019776  -0.113300   0.000000   0.000000
   28  CL 2  X    0.264843   0.000000   0.000000  -1.156996   0.792172
   29  CL 2  Y    0.000000  -0.498837   0.087071   0.000000   0.000000
   30  CL 2  Z    0.000000  -0.087071  -0.498837   0.000000   0.000000
   31  CL 2  S    0.792333   0.000000   0.000000  -4.437300  -2.108780
   32  CL 2  X   -1.006054   0.000000   0.000000  -1.885576  -1.070575
   33  CL 2  Y    0.000000   1.177908  -0.205602   0.000000   0.000000
   34  CL 2  Z    0.000000   0.205602   1.177908   0.000000   0.000000
   35  CL 2 XX    0.007515   0.000000   0.000000   0.019099  -0.024549
   36  CL 2 YY   -0.003758   0.000000   0.000000  -0.009550   0.012274
   37  CL 2 ZZ   -0.003758   0.000000   0.000000  -0.009550   0.012274
   38  CL 2 XY    0.000000   0.000258  -0.000045   0.000000   0.000000
   39  CL 2 XZ    0.000000   0.000045   0.000258   0.000000   0.000000
   40  CL 2 YZ    0.000000   0.000000   0.000000   0.000000   0.000000
   41  CL 2 XX    0.030408   0.000000   0.000000   0.079432  -0.068878
   42  CL 2 YY   -0.015204   0.000000   0.000000  -0.039716   0.034439
   43  CL 2 ZZ   -0.015204   0.000000   0.000000  -0.039716   0.034439
   44  CL 2 XY    0.000000  -0.003688   0.000644   0.000000   0.000000
   45  CL 2 XZ    0.000000  -0.000644  -0.003688   0.000000   0.000000
   46  CL 2 YZ    0.000000   0.000000   0.000000   0.000000   0.000000
   47  CL 2 XX    0.027585   0.000000   0.000000  -0.345467  -0.181694
   48  CL 2 YY   -0.013792   0.000000   0.000000   0.172734   0.090847
   49  CL 2 ZZ   -0.013792   0.000000   0.000000   0.172734   0.090847
   50  CL 2 XY    0.000000   0.016239  -0.002834   0.000000   0.000000
   51  CL 2 XZ    0.000000   0.002834   0.016239   0.000000   0.000000
   52  CL 2 YZ    0.000000   0.000000   0.000000   0.000000   0.000000
   53  CL 2 XXX   0.002934   0.000000   0.000000  -0.008549   0.001415
   54  CL 2 YYY   0.000000   0.001405  -0.000245   0.000000   0.000000
   55  CL 2 ZZZ   0.000000   0.000245   0.001405   0.000000   0.000000
   56  CL 2 XXY   0.000000  -0.002514   0.000439   0.000000   0.000000
   57  CL 2 XXZ   0.000000  -0.000439  -0.002514   0.000000   0.000000
   58  CL 2 YYX  -0.001968   0.000000   0.000000   0.005735  -0.000949
   59  CL 2 YYZ   0.000000   0.000110   0.000629   0.000000   0.000000
   60  CL 2 ZZX  -0.001968   0.000000   0.000000   0.005735  -0.000949
   61  CL 2 ZZY   0.000000   0.000629  -0.000110   0.000000   0.000000
   62  CL 2 XYZ   0.000000   0.000000   0.000000   0.000000   0.000000

                     16         17         18         19
                    0.3867     0.3867     0.4297     0.4297
                     A          A          A          A   
    1  H  1  S    0.000000   0.000000   0.000000   0.000000
    2  H  1  S    0.000000   0.000000   0.000000   0.000000
    3  H  1  S    0.000000   0.000000   0.000000   0.000000
    4  H  1  X    0.000000   0.000000   0.000000   0.000000
    5  H  1  Y   -0.008126   0.000039   0.000000   0.000000
    6  H  1  Z    0.000039   0.008126   0.000000   0.000000
    7  H  1  X    0.000000   0.000000   0.000000   0.000000
    8  H  1  Y    0.010653  -0.000051   0.000000   0.000000
    9  H  1  Z   -0.000051  -0.010653   0.000000   0.000000
   10  H  1  X    0.000000   0.000000   0.000000   0.000000
   11  H  1  Y   -0.317968   0.001512   0.000000   0.000000
   12  H  1  Z    0.001512   0.317968   0.000000   0.000000
   13  CL 2  S    0.000000   0.000000   0.000000   0.000000
   14  CL 2  S    0.000000   0.000000   0.000000   0.000000
   15  CL 2  S    0.000000   0.000000   0.000000   0.000000
   16  CL 2  S    0.000000   0.000000   0.000000   0.000000
   17  CL 2  S    0.000000   0.000000   0.000000   0.000000
   18  CL 2  S    0.000000   0.000000   0.000000   0.000000
   19  CL 2  X    0.000000   0.000000   0.000000   0.000000
   20  CL 2  Y   -0.016508   0.000079   0.000000   0.000000
   21  CL 2  Z    0.000079   0.016508   0.000000   0.000000
   22  CL 2  X    0.000000   0.000000   0.000000   0.000000
   23  CL 2  Y   -0.000647   0.000003   0.000000   0.000000
   24  CL 2  Z    0.000003   0.000647   0.000000   0.000000
   25  CL 2  X    0.000000   0.000000   0.000000   0.000000
   26  CL 2  Y    0.040384  -0.000192   0.000000   0.000000
   27  CL 2  Z   -0.000192  -0.040384   0.000000   0.000000
   28  CL 2  X    0.000000   0.000000   0.000000   0.000000
   29  CL 2  Y    0.128227  -0.000610   0.000000   0.000000
   30  CL 2  Z   -0.000610  -0.128227   0.000000   0.000000
   31  CL 2  S    0.000000   0.000000   0.000000   0.000000
   32  CL 2  X    0.000000   0.000000   0.000000   0.000000
   33  CL 2  Y    0.049973  -0.000238   0.000000   0.000000
   34  CL 2  Z   -0.000238  -0.049973   0.000000   0.000000
   35  CL 2 XX    0.000000   0.000000   0.000000   0.000000
   36  CL 2 YY    0.000000   0.000000  -0.055092  -0.000786
   37  CL 2 ZZ    0.000000   0.000000   0.055092   0.000786
   38  CL 2 XY   -0.058562   0.000279   0.000000   0.000000
   39  CL 2 XZ    0.000279   0.058562   0.000000   0.000000
   40  CL 2 YZ    0.000000   0.000000   0.000908  -0.063614
   41  CL 2 XX    0.000000   0.000000   0.000000   0.000000
   42  CL 2 YY    0.000000   0.000000  -0.141968  -0.002027
   43  CL 2 ZZ    0.000000   0.000000   0.141968   0.002027
   44  CL 2 XY   -0.159813   0.000760   0.000000   0.000000
   45  CL 2 XZ    0.000760   0.159813   0.000000   0.000000
   46  CL 2 YZ    0.000000   0.000000   0.002340  -0.163930
   47  CL 2 XX    0.000000   0.000000   0.000000   0.000000
   48  CL 2 YY    0.000000   0.000000  -0.782063  -0.011164
   49  CL 2 ZZ    0.000000   0.000000   0.782063   0.011164
   50  CL 2 XY   -0.695479   0.003308   0.000000   0.000000
   51  CL 2 XZ    0.003308   0.695479   0.000000   0.000000
   52  CL 2 YZ    0.000000   0.000000   0.012892  -0.903048
   53  CL 2 XXX   0.000000   0.000000   0.000000   0.000000
   54  CL 2 YYY   0.004414  -0.000021   0.000000   0.000000
   55  CL 2 ZZZ  -0.000021  -0.004414   0.000000   0.000000
   56  CL 2 XXY  -0.007896   0.000038   0.000000   0.000000
   57  CL 2 XXZ   0.000038   0.007896   0.000000   0.000000
   58  CL 2 YYX   0.000000   0.000000  -0.004703  -0.000067
   59  CL 2 YYZ  -0.000009  -0.001974   0.000000   0.000000
   60  CL 2 ZZX   0.000000   0.000000   0.004703   0.000067
   61  CL 2 ZZY   0.001974  -0.000009   0.000000   0.000000
   62  CL 2 XYZ   0.000000   0.000000   0.000078  -0.005431

     ----------------------------------------------------------------
     PROPERTY VALUES FOR THE RHF   SELF-CONSISTENT FIELD WAVEFUNCTION
     ----------------------------------------------------------------

          ---------------------------------------
          MULLIKEN AND LOWDIN POPULATION ANALYSES
          ---------------------------------------

               ----- POPULATIONS IN EACH AO -----
                             MULLIKEN      LOWDIN
              1  H  1  S      0.45239     0.37365
              2  H  1  S      0.18218     0.25964
              3  H  1  S      0.00663     0.03120
              4  H  1  X      0.00038     0.00100
              5  H  1  Y      0.00007     0.00021
              6  H  1  Z      0.00007     0.00021
              7  H  1  X      0.01414     0.02035
              8  H  1  Y      0.00446     0.00608
              9  H  1  Z      0.00446     0.00608
             10  H  1  X     -0.00023     0.09197
             11  H  1  Y      0.01665     0.08200
             12  H  1  Z      0.01665     0.08200
             13  CL 2  S      0.74365     0.87653
             14  CL 2  S      1.22482     1.10223
             15  CL 2  S      0.99342     0.95717
             16  CL 2  S      0.99148     0.72992
             17  CL 2  S      1.04243     0.37415
             18  CL 2  S      0.93404     0.36660
             19  CL 2  X      1.78836     1.73975
             20  CL 2  Y      1.80680     1.76227
             21  CL 2  Z      1.80680     1.76227
             22  CL 2  X      0.22238     0.28268
             23  CL 2  Y      0.21872     0.30636
             24  CL 2  Z      0.21872     0.30636
             25  CL 2  X      0.67001     0.35774
             26  CL 2  Y      0.91594     0.47620
             27  CL 2  Z      0.91594     0.47620
             28  CL 2  X      0.65927     0.44464
             29  CL 2  Y      0.98659     0.59166
             30  CL 2  Z      0.98659     0.59166
             31  CL 2  S      0.01727     0.06975
             32  CL 2  X      0.00149     0.07013
             33  CL 2  Y      0.04936     0.10819
             34  CL 2  Z      0.04936     0.10819
             35  CL 2 XX      0.00040     0.12435
             36  CL 2 YY      0.00120     0.12339
             37  CL 2 ZZ      0.00003     0.12339
             38  CL 2 XY      0.00003     0.00003
             39  CL 2 XZ      0.00000     0.00003
             40  CL 2 YZ      0.00000     0.00000
             41  CL 2 XX      0.00566     0.26125
             42  CL 2 YY      0.01699     0.25104
             43  CL 2 ZZ      0.00042     0.25104
             44  CL 2 XY      0.00042     0.00020
             45  CL 2 XZ      0.00000     0.00020
             46  CL 2 YZ      0.00000     0.00000
             47  CL 2 XX      0.00714     0.08800
             48  CL 2 YY      0.02143     0.05942
             49  CL 2 ZZ      0.00072     0.05942
             50  CL 2 XY      0.00072     0.00010
             51  CL 2 XZ      0.00000     0.00010
             52  CL 2 YZ      0.00000     0.00000
             53  CL 2 XXX     0.00191     0.31426
             54  CL 2 YYY     0.00015     0.35131
             55  CL 2 ZZZ     0.00115     0.35131
             56  CL 2 XXY     0.00009     0.15938
             57  CL 2 XXZ     0.00001     0.15938
             58  CL 2 YYX     0.00000     0.09767
             59  CL 2 YYZ     0.00022     0.15602
             60  CL 2 ZZX     0.00000     0.09767
             61  CL 2 ZZY     0.00000     0.15602
             62  CL 2 XYZ     0.00000     0.00000

          ----- MULLIKEN ATOMIC OVERLAP POPULATIONS -----
          (OFF-DIAGONAL ELEMENTS NEED TO BE MULTIPLIED BY 2)

             1           2

    1    0.3716560
    2    0.3261938  16.9759565

          TOTAL MULLIKEN AND LOWDIN ATOMIC POPULATIONS
       ATOM         MULL.POP.    CHARGE          LOW.POP.     CHARGE
    1 H             0.697850    0.302150         0.954387    0.045613
    2 CL           17.302150   -0.302150        17.045613   -0.045613

          MULLIKEN SPHERICAL HARMONIC POPULATIONS
       ATOM           S       P       D      F      G      H      I    TOTAL
    1 H             0.64    0.06    0.00   0.00   0.00   0.00   0.00    0.70
    2 CL            5.95   11.30    0.06   0.00   0.00   0.00   0.00   17.30

          -------------------------------
          BOND ORDER AND VALENCE ANALYSIS     BOND ORDER THRESHOLD=0.050
          -------------------------------

                   BOND                       BOND                       BOND
  ATOM PAIR DIST  ORDER      ATOM PAIR DIST  ORDER      ATOM PAIR DIST  ORDER
    1   2  1.278  0.939

                       TOTAL       BONDED        FREE
      ATOM            VALENCE     VALENCE     VALENCE
    1 H                 0.939       0.939       0.000
    2 CL                0.939       0.939       0.000

          ---------------------
          ELECTROSTATIC MOMENTS
          ---------------------

 POINT   1           X           Y           Z (BOHR)    CHARGE
                -1.139451    0.000000    0.000000        0.00 (A.U.)
         DX          DY          DZ         /D/  (DEBYE)
     1.203256    0.000000    0.000000    1.203256
 ...... END OF PROPERTY EVALUATION ......
 STEP CPU TIME =     0.13 TOTAL CPU TIME =     1107.0 (   18.4 MIN)
 TOTAL WALL CLOCK TIME=     1190.0 SECONDS, CPU UTILIZATION IS  93.02%
  $VIB   
          IVIB=   0 IATOM=   0 ICOORD=   0 E=     -460.2945178203
 -1.905761847E-05 0.000000000E+00 0.000000000E+00 1.905761847E-05 0.000000000E+00
  0.000000000E+00
  1.203256371E+00 0.000000000E+00 0.000000000E+00
 ......END OF GEOMETRY SEARCH......
 STEP CPU TIME =     0.00 TOTAL CPU TIME =     1107.0 (   18.4 MIN)
 TOTAL WALL CLOCK TIME=     1190.0 SECONDS, CPU UTILIZATION IS  93.02%
 5023531 WORDS OF DYNAMIC MEMORY USED
 EXECUTION OF GAMESS TERMINATED NORMALLY Sat Mar 28 14:42:46 2009
 DDI: 262808 bytes (0.3 MB / 0 MWords) used by master data server.

 ----------------------------------------
 CPU timing information for all processes
 ========================================
 0: 1079.800000 + 27.184000 = 1106.984000
 ----------------------------------------
 ddikick.x: exited gracefully.
