
 Distributed Data Interface kickoff program.
 Initiating 1 compute processes on 1 nodes to run the following command:
 /home/instructor/gamess/gamess.April2008R1.x /home/instructor/webmo/gutow/127/input 

          ******************************************************
          *         GAMESS VERSION = 11 APR 2008 (R1)          *
          *             FROM IOWA STATE UNIVERSITY             *
          * M.W.SCHMIDT, K.K.BALDRIDGE, J.A.BOATZ, S.T.ELBERT, *
          *   M.S.GORDON, J.H.JENSEN, S.KOSEKI, N.MATSUNAGA,   *
          *          K.A.NGUYEN, S.J.SU, T.L.WINDUS,           *
          *       TOGETHER WITH M.DUPUIS, J.A.MONTGOMERY       *
          *         J.COMPUT.CHEM.  14, 1347-1363(1993)        *
          **************** 32 BIT LINUX VERSION ****************

     SINCE 1993, STUDENTS AND POSTDOCS WORKING AT IOWA STATE UNIVERSITY
     AND ALSO IN THEIR VARIOUS JOBS AFTER LEAVING ISU HAVE MADE IMPORTANT
     CONTRIBUTIONS TO THE CODE:
     IVANA ADAMOVIC, CHRISTINE AIKENS, YURI ALEXEEV, POOJA ARORA, ROB BELL,
     PRADIPTA BANDYOPADHYAY, JONATHAN BENTZ, BRETT BODE, GALINA CHABAN,
     WEI CHEN, CHEOL HO CHOI, PAUL DAY, TIM DUDLEY, DMITRI FEDOROV,
     GRAHAM FLETCHER, MARK FREITAG, KURT GLAESEMANN, DAN KEMP, GRANT MERRILL,
     JONATHAN MULLIN, TAKESHI NAGATA, SEAN NEDD, HEATHER NETZLOFF,
     BOSILJKA NJEGIC, RYAN OLSON, MIKE PAK, JIM SHOEMAKER, LYUDMILA SLIPCHENKO,
     SAROM SOK, JIE SONG, TETSUYA TAKETSUGU, SIMON WEBB, SOOHAENG YOO.

     ADDITIONAL CODE HAS BEEN PROVIDED BY COLLABORATORS IN OTHER GROUPS:
     IOWA STATE UNIVERSITY: JOE IVANIC, KLAUS RUEDENBERG
     UNIVERSITY OF TOKYO: KIMIHIKO HIRAO, TAKAHITO NAKAJIMA,
          TAKAO TSUNEDA, MUNEAKI KAMIYA, SUSUMU YANAGISAWA,
          KIYOSHI YAGI, MAHITO CHIBA, SEIKEN TOKURA, NAOAKI KAWAKAMI
     UNIVERSITY OF AARHUS: FRANK JENSEN
     UNIVERSITY OF IOWA: VISVALDAS KAIRYS, HUI LI
     NATIONAL INST. OF STANDARDS AND TECHNOLOGY: WALT STEVENS, DAVID GARMER
     UNIVERSITY OF PISA: BENEDETTA MENNUCCI, JACOPO TOMASI
     UNIVERSITY OF MEMPHIS: HENRY KURTZ, PRAKASHAN KORAMBATH
     UNIVERSITY OF ALBERTA: MARIUSZ KLOBUKOWSKI
     UNIVERSITY OF NEW ENGLAND: MARK SPACKMAN
     MIE UNIVERSITY: HIROAKI UMEDA
     MICHIGAN STATE UNIVERSITY:
          KAROL KOWALSKI, MARTA WLOCH, JEFFREY R. GOUR, PIOTR PIECUCH
     UNIVERSITY OF SILESIA: MONIKA MUSIAL, STANISLAW KUCHARSKI
     FACULTES UNIVERSITAIRES NOTRE-DAME DE LA PAIX:
          OLIVIER QUINET, BENOIT CHAMPAGNE
     UNIVERSITY OF CALIFORNIA - SANTA BARBARA: BERNARD KIRTMAN
     INSTITUTE FOR MOLECULAR SCIENCE: KAZUYA ISHIMURA AND SHIGERU NAGASE
     UNIVERSITY OF NOTRE DAME: DAN CHIPMAN
     KYUSHU UNIVERSITY:
          HARUYUKI NAKANO,
          FENG LONG GU, JACEK KORCHOWIEC, MARCIN MAKOWSKI, AND YURIKO AOKI,
          HIROTOSHI MORI AND EISAKU MIYOSHI
     PENNSYLVANIA STATE UNIVERSITY:
          TZVETELIN IORDANOV, CHET SWALINA, JONATHAN SKONE,
          SHARON HAMMES-SCHIFFER

 EXECUTION OF GAMESS BEGUN Thu Mar 19 11:18:50 2009

            ECHO OF THE FIRST FEW INPUT CARDS -
 INPUT CARD> $CONTRL SCFTYP=RHF RUNTYP=OPTIMIZE                                             
 INPUT CARD>       ICHARG=0 MULT=1 COORD=ZMTMPC $END                                        
 INPUT CARD> $BASIS GBASIS=N311 NGAUSS=6 NDFUNC=1 NPFUNC=1 DIFFSP=.TRUE. $END               
 INPUT CARD> $DATA                                                                          
 INPUT CARD>HCl                                                                             
 INPUT CARD>C1 1                                                                            
 INPUT CARD>H 0.0000000 0 0.0000000 0 0.0000000 0 0 0 0                                     
 INPUT CARD>Cl 1.2934898 1 0.0000000 0 0.0000000 0 1 0 0                                    
 INPUT CARD> $END                                                                           
 INPUT CARD>                                                                                
    1000000 WORDS OF MEMORY AVAILABLE

     BASIS OPTIONS
     -------------
     GBASIS=N311         IGAUSS=       6      POLAR=POPN311 
     NDFUNC=       1     NFFUNC=       0     DIFFSP=       T
     NPFUNC=       1      DIFFS=       F


     RUN TITLE
     ---------
 HCl                                                                             

 THE POINT GROUP OF THE MOLECULE IS C1      
 THE ORDER OF THE PRINCIPAL AXIS IS     1

 YOUR FULLY SUBSTITUTED Z-MATRIX IS
 H   
 CL     1   1.2934898

 THE MOMENTS OF INERTIA ARE (AMU-ANGSTROM**2)
 IXX=     1.639   IYY=     1.639   IZZ=     0.000

 ATOM      ATOMIC                      COORDINATES (BOHR)
           CHARGE         X                   Y                   Z
 H           1.0     0.0000000000        0.0000000000       -2.3758672505
 CL         17.0     0.0000000000        0.0000000000        0.0684740394

          INTERNUCLEAR DISTANCES (ANGS.)
          ------------------------------

                1 H          2 CL    

   1 H       0.0000000    1.2934898 *
   2 CL      1.2934898 *  0.0000000  

  * ... LESS THAN  3.000


     ATOMIC BASIS SET
     ----------------
 THE CONTRACTED PRIMITIVE FUNCTIONS HAVE BEEN UNNORMALIZED
 THE CONTRACTED BASIS FUNCTIONS ARE NOW NORMALIZED TO UNITY

  SHELL TYPE  PRIMITIVE        EXPONENT          CONTRACTION COEFFICIENT(S)

 H         

      1   S       1            33.8650000    0.025493814541
      1   S       2             5.0947900    0.190373108582
      1   S       3             1.1587900    0.852161486043

      2   S       4             0.3258400    1.000000000000

      3   S       5             0.1027410    1.000000000000

      4   P       6             0.7500000    1.000000000000

 CL        

      5   S       7        105818.8000000    0.000743000275
      5   S       8         15872.0000000    0.005753002128
      5   S       9          3619.7000000    0.029676010978
      5   S      10          1030.8000000    0.118010043656
      5   S      11           339.9100000    0.365230135112
      5   S      12           124.5380000    0.581221215015

      6   S      13           124.5380000    0.137547961709
      6   S      14            49.5140000    0.622880826601
      6   S      15            20.8060000    0.290142919229

      7   S      16             6.4648000    1.000000000000

      8   S      17             2.5254000    1.000000000000

      9   S      18             0.5378000    1.000000000000

     10   S      19             0.1935000    1.000000000000

     11   P      20           589.7800000    0.002759999618
     11   P      21           139.8500000    0.021535997016
     11   P      22            44.7950000    0.095915986708
     11   P      23            16.6120000    0.262314963650
     11   P      24             6.5995000    0.726810899282

     12   P      25             6.5995000   -1.564657110393
     12   P      26             2.7141000    1.496125206176

     13   P      27             0.9528000    1.000000000000

     14   P      28             0.3580000    1.000000000000

     15   P      29             0.1250000    1.000000000000

     16   L      30             0.0483000    1.000000000000    1.000000000000

     17   D      31             0.7500000    1.000000000000

 TOTAL NUMBER OF BASIS SET SHELLS             =   17
 NUMBER OF CARTESIAN GAUSSIAN BASIS FUNCTIONS =   37
 NUMBER OF ELECTRONS                          =   18
 CHARGE OF MOLECULE                           =    0
 SPIN MULTIPLICITY                            =    1
 NUMBER OF OCCUPIED ORBITALS (ALPHA)          =    9
 NUMBER OF OCCUPIED ORBITALS (BETA )          =    9
 TOTAL NUMBER OF ATOMS                        =    2
 THE NUCLEAR REPULSION ENERGY IS        6.9548389458

 THIS MOLECULE IS RECOGNIZED AS BEING LINEAR.

     $CONTRL OPTIONS
     ---------------
 SCFTYP=RHF          RUNTYP=OPTIMIZE     EXETYP=RUN     
 MPLEVL=       0     CITYP =NONE         CCTYP =NONE         VBTYP =NONE    
 DFTTYP=NONE         TDDFT =NONE    
 MULT  =       1     ICHARG=       0     NZVAR =       0     COORD =ZMTMPC  
 PP    =NONE         RELWFN=NONE         LOCAL =NONE         NUMGRD=       F
 ISPHER=      -1     NOSYM =       0     MAXIT =      30     UNITS =ANGS    
 PLTORB=       F     MOLPLT=       F     AIMPAC=       F     FRIEND=        
 NPRINT=       7     IREST =       0     GEOM  =INPUT   
 NORMF =       0     NORMP =       0     ITOL  =      20     ICUT  =       9
 INTTYP=BEST         GRDTYP=BEST         QMTTOL= 1.0E-06

     $SYSTEM OPTIONS
     ---------------
  REPLICATED MEMORY=     1000000 WORDS (ON EVERY NODE).
 DISTRIBUTED MEMDDI=           0 MILLION WORDS IN AGGREGATE,
 MEMDDI DISTRIBUTED OVER   1 PROCESSORS IS           0 WORDS/PROCESSOR.
 TOTAL MEMORY REQUESTED ON EACH PROCESSOR=     1000000 WORDS.
 TIMLIM=      525600.00 MINUTES, OR   365.00 DAYS.
 PARALL= F  BALTYP=  NXTVAL  KDIAG=    0  COREFL= F

          ----------------
          PROPERTIES INPUT
          ----------------

     MOMENTS            FIELD           POTENTIAL          DENSITY
 IEMOM =       1   IEFLD =       0   IEPOT =       0   IEDEN =       0
 WHERE =COMASS     WHERE =NUCLEI     WHERE =NUCLEI     WHERE =NUCLEI  
 OUTPUT=BOTH       OUTPUT=BOTH       OUTPUT=BOTH       OUTPUT=BOTH    
 IEMINT=       0   IEFINT=       0                     IEDINT=       0
                                                       MORB  =       0
          EXTRAPOLATION IN EFFECT
          SOSCF IN EFFECT
 ORBITAL PRINTING OPTION: NPREO=   1  37   2   1

     -------------------------------
     INTEGRAL TRANSFORMATION OPTIONS
     -------------------------------
     NWORD  =         0     CUTOFF = 1.0E-09
     MPTRAN =         0     DIRTRF =       F
     AOINTS =DUP     

          ----------------------
          INTEGRAL INPUT OPTIONS
          ----------------------
 NOPK  =       1 NORDER=       0 SCHWRZ=       F

   --- ENCODED Z MATRIX ---
 COORD  TYPE   I   J   K   L   M   N
    1      1    2   1

 THE DETERMINANT OF THE G MATRIX IS 10**(     0)

     ------------------------------------------
     THE POINT GROUP IS C1 , NAXIS= 1, ORDER= 1
     ------------------------------------------

     DIMENSIONS OF THE SYMMETRY SUBSPACES ARE
 A   =   37

 ..... DONE SETTING UP THE RUN .....
 STEP CPU TIME =     0.08 TOTAL CPU TIME =        0.1 (    0.0 MIN)
 TOTAL WALL CLOCK TIME=        0.0 SECONDS, CPU UTILIZATION IS 100.00%


          -----------------------------
          STATIONARY POINT LOCATION RUN
          -----------------------------

 OBTAINING INITIAL HESSIAN, HESS=GUESS   
 CARTESIAN COORDINATE OPTIMIZATION USING BADGER'S RULE FORCE CONSTANT GUESS

          PARAMETERS CONTROLLING GEOMETRY SEARCH ARE
          METHOD =QA                  UPHESS =BFGS    
          NNEG   =         0          NFRZ   =         0
          NSTEP  =        20          IFOLOW =         1
          HESS   =GUESS               RESTAR =         F
          IHREP  =         0          HSSEND =         F
          NPRT   =         0          NPUN   =         0
          OPTTOL = 1.000E-04          RMIN   = 1.500E-03
          RMAX   = 1.000E-01          RLIM   = 7.000E-02
          DXMAX  = 3.000E-01          PURIFY =         F
          MOVIE  =         F          TRUPD  =         T
          TRMAX  = 5.000E-01          TRMIN  = 5.000E-02
          ITBMAT =         5          STPT   =         F
          STSTEP = 1.000E-02          PROJCT=          T

 BEGINNING GEOMETRY SEARCH POINT NSERCH=   0 ...

 COORDINATES OF ALL ATOMS ARE (ANGS)
   ATOM   CHARGE       X              Y              Z
 ------------------------------------------------------------
 H           1.0   0.0000000000   0.0000000000  -1.2572548962
 CL         17.0   0.0000000000   0.0000000000   0.0362349038

 THE CURRENT FULLY SUBSTITUTED Z-MATRIX IS
 H   
 CL     1   1.2934898

          ********************
          1 ELECTRON INTEGRALS
          ********************
 ...... END OF ONE-ELECTRON INTEGRALS ......
 STEP CPU TIME =     0.01 TOTAL CPU TIME =        0.1 (    0.0 MIN)
 TOTAL WALL CLOCK TIME=        0.0 SECONDS, CPU UTILIZATION IS 100.00%

          -------------
          GUESS OPTIONS
          -------------
          GUESS =HUCKEL            NORB  =       0          NORDER=       0
          MIX   =       F          PRTMO =       F          PUNMO =       F
          TOLZ  = 1.0E-08          TOLE  = 1.0E-05
          SYMDEN=       F          PURIFY=       F

 INITIAL GUESS ORBITALS GENERATED BY HUCKEL   ROUTINE.
 HUCKEL GUESS REQUIRES     12123 WORDS.

 SYMMETRIES FOR INITIAL GUESS ORBITALS FOLLOW.   BOTH SET(S).
     9 ORBITALS ARE OCCUPIED (    5 CORE ORBITALS).
     6=A        7=A        8=A        9=A       10=A       11=A       12=A   
    13=A       14=A       15=A       16=A       17=A       18=A       19=A   
 ...... END OF INITIAL ORBITAL SELECTION ......
 STEP CPU TIME =     0.02 TOTAL CPU TIME =        0.1 (    0.0 MIN)
 TOTAL WALL CLOCK TIME=        0.0 SECONDS, CPU UTILIZATION IS 100.00%

                    ----------------------
                    AO INTEGRAL TECHNOLOGY
                    ----------------------
     S,P,L SHELL ROTATED AXIS INTEGRALS, REPROGRAMMED BY
        KAZUYA ISHIMURA (IMS) AND JOSE SIERRA (SYNSTAR).
     S,P,D,L SHELL ROTATED AXIS INTEGRALS PROGRAMMED BY
        KAZUYA ISHIMURA (INSTITUTE FOR MOLECULAR SCIENCE).
     S,P,D,F,G SHELL TO TOTAL QUARTET ANGULAR MOMENTUM SUM 5,
        ERIC PROGRAM BY GRAHAM FLETCHER (ELORET AND NASA ADVANCED
        SUPERCOMPUTING DIVISION, AMES RESEARCH CENTER).
     S,P,D,F,G,L SHELL GENERAL RYS QUADRATURE PROGRAMMED BY
        MICHEL DUPUIS (PACIFIC NORTHWEST NATIONAL LABORATORY).

          --------------------
          2 ELECTRON INTEGRALS
          --------------------

 THE -PK- OPTION IS OFF, THE INTEGRALS ARE NOT IN SUPERMATRIX FORM.
 STORING   15000 INTEGRALS/RECORD ON DISK, USING 12 BYTES/INTEGRAL.
 TWO ELECTRON INTEGRAL EVALUATION REQUIRES   90549 WORDS OF MEMORY.
 II,JST,KST,LST =  1  1  1  1 NREC =         1 INTLOC =    1
 II,JST,KST,LST =  2  1  1  1 NREC =         1 INTLOC =    2
 II,JST,KST,LST =  3  1  1  1 NREC =         1 INTLOC =    7
 II,JST,KST,LST =  4  1  1  1 NREC =         1 INTLOC =   22
 II,JST,KST,LST =  5  1  1  1 NREC =         1 INTLOC =   67
 II,JST,KST,LST =  6  1  1  1 NREC =         1 INTLOC =  152
 II,JST,KST,LST =  7  1  1  1 NREC =         1 INTLOC =  287
 II,JST,KST,LST =  8  1  1  1 NREC =         1 INTLOC =  490
 II,JST,KST,LST =  9  1  1  1 NREC =         1 INTLOC =  782
 II,JST,KST,LST = 10  1  1  1 NREC =         1 INTLOC = 1187
 II,JST,KST,LST = 11  1  1  1 NREC =         1 INTLOC = 1732
 II,JST,KST,LST = 12  1  1  1 NREC =         1 INTLOC = 2956
 II,JST,KST,LST = 13  1  1  1 NREC =         1 INTLOC = 4984
 II,JST,KST,LST = 14  1  1  1 NREC =         1 INTLOC = 8050
 II,JST,KST,LST = 15  1  1  1 NREC =         1 INTLOC =12451
 II,JST,KST,LST = 16  1  1  1 NREC =         2 INTLOC = 3547
 II,JST,KST,LST = 17  1  1  1 NREC =         3 INTLOC =  570
 TOTAL NUMBER OF NONZERO TWO-ELECTRON INTEGRALS =               55785
          4 INTEGRAL RECORDS WERE STORED ON DISK FILE  8.
  ...... END OF TWO-ELECTRON INTEGRALS .....
 STEP CPU TIME =     0.79 TOTAL CPU TIME =        0.9 (    0.0 MIN)
 TOTAL WALL CLOCK TIME=        2.0 SECONDS, CPU UTILIZATION IS  45.00%

          --------------------------
                 RHF SCF CALCULATION
          --------------------------

     NUCLEAR ENERGY =         6.9548389458
     MAXIT =   30     NPUNCH=    2
     EXTRAP=T  DAMP=F  SHIFT=F  RSTRCT=F  DIIS=F  DEM=F  SOSCF=T
     DENSITY MATRIX CONV=  1.00E-05
     SOSCF WILL OPTIMIZE     252 ORBITAL ROTATIONS, SOGTOL=   0.250
     MEMORY REQUIRED FOR RHF ITERS=     41109 WORDS.

 ITER EX DEM     TOTAL ENERGY        E CHANGE  DENSITY CHANGE     ORB. GRAD
   1  0  0     -459.6956090751  -459.6956090751   0.214727770   0.000000000
          ---------------START SECOND ORDER SCF---------------
   2  1  0     -460.0919031906    -0.3962941155   0.022863246   0.055936380
   3  2  0     -460.0972513885    -0.0053481978   0.011445673   0.006680440
   4  3  0     -460.0976582370    -0.0004068486   0.002131505   0.003934133
   5  4  0     -460.0976669821    -0.0000087450   0.000310001   0.000212962
   6  5  0     -460.0976674436    -0.0000004615   0.000107961   0.000135020
   7  6  0     -460.0976674594    -0.0000000158   0.000035671   0.000014573
   8  7  0     -460.0976674601    -0.0000000007   0.000003345   0.000001489
   9  8  0     -460.0976674602     0.0000000000   0.000001253   0.000000849

          -----------------
          DENSITY CONVERGED
          -----------------
     TIME TO FORM FOCK OPERATORS=       0.1 SECONDS (       0.0 SEC/ITER)
     TIME TO SOLVE SCF EQUATIONS=       0.0 SECONDS (       0.0 SEC/ITER)

 FINAL RHF ENERGY IS     -460.0976674602 AFTER   9 ITERATIONS

          ------------
          EIGENVECTORS
          ------------

                      1          2          3          4          5
                 -104.8502   -10.5759    -8.0445    -8.0413    -8.0413
                     A          A          A          A          A   
    1  H  1  S   -0.000003   0.000142  -0.000461   0.000000   0.000000
    2  H  1  S   -0.000003  -0.000582  -0.000170   0.000000   0.000000
    3  H  1  S   -0.000001   0.000984   0.000815   0.000000   0.000000
    4  H  1  X    0.000000   0.000000   0.000000   0.000032   0.000013
    5  H  1  Y    0.000000   0.000000   0.000000  -0.000013   0.000032
    6  H  1  Z    0.000005  -0.000694   0.000018   0.000000   0.000000
    7  CL 2  S    0.409236  -0.121078  -0.000661   0.000000   0.000000
    8  CL 2  S    0.656740  -0.331317  -0.001840   0.000000   0.000000
    9  CL 2  S    0.012897   0.529495   0.003510   0.000000   0.000000
   10  CL 2  S   -0.002195   0.582851   0.002869   0.000000   0.000000
   11  CL 2  S    0.001578   0.054494  -0.001154   0.000000   0.000000
   12  CL 2  S    0.000057  -0.007747  -0.000144   0.000000   0.000000
   13  CL 2  X    0.000000   0.000000   0.000000   0.985509   0.398487
   14  CL 2  Y    0.000000   0.000000   0.000000  -0.398487   0.985509
   15  CL 2  Z   -0.000078  -0.005013   1.062235   0.000000   0.000000
   16  CL 2  X    0.000000   0.000000   0.000000   0.197376   0.079808
   17  CL 2  Y    0.000000   0.000000   0.000000  -0.079808   0.197376
   18  CL 2  Z   -0.000029  -0.001171   0.213192   0.000000   0.000000
   19  CL 2  X    0.000000   0.000000   0.000000   0.043096   0.017426
   20  CL 2  Y    0.000000   0.000000   0.000000  -0.017426   0.043096
   21  CL 2  Z    0.000055  -0.000609   0.048506   0.000000   0.000000
   22  CL 2  X    0.000000   0.000000   0.000000  -0.004495  -0.001817
   23  CL 2  Y    0.000000   0.000000   0.000000   0.001817  -0.004495
   24  CL 2  Z   -0.000035  -0.000706  -0.005604   0.000000   0.000000
   25  CL 2  X    0.000000   0.000000   0.000000   0.002060   0.000833
   26  CL 2  Y    0.000000   0.000000   0.000000  -0.000833   0.002060
   27  CL 2  Z    0.000015   0.000397   0.002779   0.000000   0.000000
   28  CL 2  S   -0.000017   0.001103  -0.000438   0.000000   0.000000
   29  CL 2  X    0.000000   0.000000   0.000000  -0.000688  -0.000278
   30  CL 2  Y    0.000000   0.000000   0.000000   0.000278  -0.000688
   31  CL 2  Z   -0.000006   0.000228  -0.000637   0.000000   0.000000
   32  CL 2 XX   -0.000488  -0.005744   0.000447   0.000000   0.000000
   33  CL 2 YY   -0.000488  -0.005744   0.000447   0.000000   0.000000
   34  CL 2 ZZ   -0.000481  -0.004828  -0.000316   0.000000   0.000000
   35  CL 2 XY    0.000000   0.000000   0.000000   0.000000   0.000000
   36  CL 2 XZ    0.000000   0.000000   0.000000  -0.000282  -0.000114
   37  CL 2 YZ    0.000000   0.000000   0.000000   0.000114  -0.000282

                      6          7          8          9         10
                   -1.1157    -0.6230    -0.4764    -0.4764     0.0933
                     A          A          A          A          A   
    1  H  1  S    0.084646  -0.153842   0.000000   0.000000   0.010355
    2  H  1  S    0.114205  -0.302721   0.000000   0.000000   0.152999
    3  H  1  S   -0.006260  -0.086474   0.000000   0.000000  -0.220919
    4  H  1  X    0.000000   0.000000   0.021540  -0.008209   0.000000
    5  H  1  Y    0.000000   0.000000   0.008209   0.021540   0.000000
    6  H  1  Z    0.026589  -0.036689   0.000000   0.000000  -0.014734
    7  CL 2  S    0.034450   0.010303   0.000000   0.000000  -0.008875
    8  CL 2  S    0.100584   0.030147   0.000000   0.000000  -0.025319
    9  CL 2  S   -0.208968  -0.063181   0.000000   0.000000   0.046113
   10  CL 2  S   -0.381027  -0.123541   0.000000   0.000000   0.150396
   11  CL 2  S    0.603116   0.193221   0.000000   0.000000  -0.139886
   12  CL 2  S    0.489990   0.282688   0.000000   0.000000  -0.860258
   13  CL 2  X    0.000000   0.000000  -0.271653   0.103525   0.000000
   14  CL 2  Y    0.000000   0.000000  -0.103525  -0.271653   0.000000
   15  CL 2  Z    0.035680  -0.239710   0.000000   0.000000  -0.073625
   16  CL 2  X    0.000000   0.000000  -0.045805   0.017456   0.000000
   17  CL 2  Y    0.000000   0.000000  -0.017456  -0.045805   0.000000
   18  CL 2  Z    0.007090  -0.042156   0.000000   0.000000  -0.013539
   19  CL 2  X    0.000000   0.000000   0.265598  -0.101218   0.000000
   20  CL 2  Y    0.000000   0.000000   0.101218   0.265598   0.000000
   21  CL 2  Z   -0.030890   0.230180   0.000000   0.000000   0.080678
   22  CL 2  X    0.000000   0.000000   0.508944  -0.193956   0.000000
   23  CL 2  Y    0.000000   0.000000   0.193956   0.508944   0.000000
   24  CL 2  Z   -0.042630   0.397789   0.000000   0.000000   0.115527
   25  CL 2  X    0.000000   0.000000   0.299044  -0.113964   0.000000
   26  CL 2  Y    0.000000   0.000000   0.113964   0.299044   0.000000
   27  CL 2  Z   -0.006474   0.138296   0.000000   0.000000   0.355874
   28  CL 2  S    0.016761   0.036957   0.000000   0.000000   1.324076
   29  CL 2  X    0.000000   0.000000   0.017389  -0.006627   0.000000
   30  CL 2  Y    0.000000   0.000000   0.006627   0.017389   0.000000
   31  CL 2  Z   -0.004470   0.001874   0.000000   0.000000  -0.788300
   32  CL 2 XX   -0.010227   0.018423   0.000000   0.000000   0.069242
   33  CL 2 YY   -0.010227   0.018423   0.000000   0.000000   0.069242
   34  CL 2 ZZ    0.016981  -0.064287   0.000000   0.000000   0.055141
   35  CL 2 XY    0.000000   0.000000   0.000000   0.000000   0.000000
   36  CL 2 XZ    0.000000   0.000000  -0.012179   0.004641   0.000000
   37  CL 2 YZ    0.000000   0.000000  -0.004641  -0.012179   0.000000

                     11         12         13         14         15
                    0.1245     0.1305     0.1305     0.1681     0.4791
                     A          A          A          A          A   
    1  H  1  S    0.040557   0.000000   0.000000   0.126869  -0.094370
    2  H  1  S    0.026251   0.000000   0.000000   0.183138  -1.674631
    3  H  1  S    0.338874   0.000000   0.000000   2.584447   3.031855
    4  H  1  X    0.000000   0.003537  -0.000237   0.000000   0.000000
    5  H  1  Y    0.000000   0.000237   0.003537   0.000000   0.000000
    6  H  1  Z    0.020409   0.000000   0.000000  -0.008423  -0.058104
    7  CL 2  S   -0.006415   0.000000   0.000000  -0.004147   0.002331
    8  CL 2  S   -0.018404   0.000000   0.000000  -0.011891   0.006898
    9  CL 2  S    0.034606   0.000000   0.000000   0.022239  -0.015181
   10  CL 2  S    0.104084   0.000000   0.000000   0.067198  -0.027113
   11  CL 2  S   -0.104807   0.000000   0.000000  -0.043860  -0.018513
   12  CL 2  S   -0.601241   0.000000   0.000000  -0.527147   0.028419
   13  CL 2  X    0.000000   0.083164  -0.005567   0.000000   0.000000
   14  CL 2  Y    0.000000   0.005567   0.083164   0.000000   0.000000
   15  CL 2  Z    0.039455   0.000000   0.000000  -0.128205   0.023305
   16  CL 2  X    0.000000   0.019607  -0.001313   0.000000   0.000000
   17  CL 2  Y    0.000000   0.001313   0.019607   0.000000   0.000000
   18  CL 2  Z    0.011593   0.000000   0.000000  -0.023451   0.004773
   19  CL 2  X    0.000000  -0.126702   0.008482   0.000000   0.000000
   20  CL 2  Y    0.000000  -0.008482  -0.126702   0.000000   0.000000
   21  CL 2  Z   -0.077282   0.000000   0.000000   0.144611  -0.019005
   22  CL 2  X    0.000000   0.018961  -0.001269   0.000000   0.000000
   23  CL 2  Y    0.000000   0.001269   0.018961   0.000000   0.000000
   24  CL 2  Z    0.090301   0.000000   0.000000   0.173898  -0.031130
   25  CL 2  X    0.000000  -0.760514   0.050912   0.000000   0.000000
   26  CL 2  Y    0.000000  -0.050912  -0.760514   0.000000   0.000000
   27  CL 2  Z   -0.528207   0.000000   0.000000   1.026708  -0.681441
   28  CL 2  S    0.536267   0.000000   0.000000  -1.749096  -1.433729
   29  CL 2  X    0.000000   1.432245  -0.095880   0.000000   0.000000
   30  CL 2  Y    0.000000   0.095880   1.432245   0.000000   0.000000
   31  CL 2  Z    1.323310   0.000000   0.000000   0.634309   1.302153
   32  CL 2 XX    0.030704   0.000000   0.000000  -0.021276   0.081165
   33  CL 2 YY    0.030704   0.000000   0.000000  -0.021276   0.081165
   34  CL 2 ZZ    0.059195   0.000000   0.000000   0.127460  -0.169896
   35  CL 2 XY    0.000000   0.000000   0.000000   0.000000   0.000000
   36  CL 2 XZ    0.000000   0.003201  -0.000214   0.000000   0.000000
   37  CL 2 YZ    0.000000   0.000214   0.003201   0.000000   0.000000

                     16         17         18         19         20
                    0.6138     0.6258     0.6258     0.9108     0.9987
                     A          A          A          A          A   
    1  H  1  S   -0.069463   0.000000   0.000000   0.024019   0.000000
    2  H  1  S   -0.497878   0.000000   0.000000  -0.081431   0.000000
    3  H  1  S    1.729699   0.000000   0.000000  -0.529985   0.000000
    4  H  1  X    0.000000   0.002046   0.000037   0.000000   0.057708
    5  H  1  Y    0.000000  -0.000037   0.002046   0.000000  -0.416159
    6  H  1  Z    0.006192   0.000000   0.000000  -0.145172   0.000000
    7  CL 2  S    0.000992   0.000000   0.000000  -0.027871   0.000000
    8  CL 2  S    0.003429   0.000000   0.000000  -0.087781   0.000000
    9  CL 2  S   -0.012750   0.000000   0.000000   0.249753   0.000000
   10  CL 2  S    0.020542   0.000000   0.000000   0.015931   0.000000
   11  CL 2  S    0.035261   0.000000   0.000000  -1.433955   0.000000
   12  CL 2  S   -0.360239   0.000000   0.000000   3.195630   0.000000
   13  CL 2  X    0.000000   0.166233   0.002994   0.000000   0.001873
   14  CL 2  Y    0.000000  -0.002994   0.166233   0.000000  -0.013509
   15  CL 2  Z    0.188218   0.000000   0.000000  -0.017537   0.000000
   16  CL 2  X    0.000000   0.002405   0.000043   0.000000   0.000072
   17  CL 2  Y    0.000000  -0.000043   0.002405   0.000000  -0.000519
   18  CL 2  Z    0.006955   0.000000   0.000000  -0.010483   0.000000
   19  CL 2  X    0.000000  -0.022243  -0.000401   0.000000  -0.001086
   20  CL 2  Y    0.000000   0.000401  -0.022243   0.000000   0.007833
   21  CL 2  Z   -0.037414   0.000000   0.000000   0.085525   0.000000
   22  CL 2  X    0.000000  -1.354874  -0.024405   0.000000  -0.005905
   23  CL 2  Y    0.000000   0.024405  -1.354874   0.000000   0.042585
   24  CL 2  Z   -1.439303   0.000000   0.000000  -0.233013   0.000000
   25  CL 2  X    0.000000   2.238933   0.040329   0.000000  -0.012643
   26  CL 2  Y    0.000000  -0.040329   2.238933   0.000000   0.091177
   27  CL 2  Z    2.386053   0.000000   0.000000   0.008211   0.000000
   28  CL 2  S   -0.803988   0.000000   0.000000  -0.605578   0.000000
   29  CL 2  X    0.000000  -1.021426  -0.018398   0.000000   0.003502
   30  CL 2  Y    0.000000   0.018398  -1.021426   0.000000  -0.025254
   31  CL 2  Z   -0.455838   0.000000   0.000000  -0.220691   0.000000
   32  CL 2 XX    0.048377   0.000000   0.000000  -0.449079   0.000000
   33  CL 2 YY    0.048377   0.000000   0.000000  -0.449079   0.000000
   34  CL 2 ZZ    0.039461   0.000000   0.000000  -0.629046   0.000000
   35  CL 2 XY    0.000000   0.000000   0.000000   0.000000   0.000000
   36  CL 2 XZ    0.000000   0.008727   0.000157   0.000000  -0.112965
   37  CL 2 YZ    0.000000  -0.000157   0.008727   0.000000   0.814639

                     21         22         23         24         25
                    0.9987     1.1395     1.1395     1.3044     1.7416
                     A          A          A          A          A   
    1  H  1  S    0.000000   0.000000   0.000000  -0.028539   0.000000
    2  H  1  S    0.000000   0.000000   0.000000   0.986929   0.000000
    3  H  1  S    0.000000   0.000000   0.000000  -0.784540   0.000000
    4  H  1  X   -0.416159   0.000000   0.000000   0.000000  -0.192735
    5  H  1  Y   -0.057708   0.000000   0.000000   0.000000   0.945457
    6  H  1  Z    0.000000   0.000000   0.000000  -0.366907   0.000000
    7  CL 2  S    0.000000   0.000000   0.000000   0.006885   0.000000
    8  CL 2  S    0.000000   0.000000   0.000000   0.022266   0.000000
    9  CL 2  S    0.000000   0.000000   0.000000  -0.069172   0.000000
   10  CL 2  S    0.000000   0.000000   0.000000   0.026013   0.000000
   11  CL 2  S    0.000000   0.000000   0.000000   0.343854   0.000000
   12  CL 2  S    0.000000   0.000000   0.000000  -0.832274   0.000000
   13  CL 2  X   -0.013509   0.000000   0.000000   0.000000  -0.008804
   14  CL 2  Y   -0.001873   0.000000   0.000000   0.000000   0.043187
   15  CL 2  Z    0.000000   0.000000   0.000000  -0.031445   0.000000
   16  CL 2  X   -0.000519   0.000000   0.000000   0.000000  -0.002092
   17  CL 2  Y   -0.000072   0.000000   0.000000   0.000000   0.010260
   18  CL 2  Z    0.000000   0.000000   0.000000  -0.015773   0.000000
   19  CL 2  X    0.007833   0.000000   0.000000   0.000000   0.018995
   20  CL 2  Y    0.001086   0.000000   0.000000   0.000000  -0.093178
   21  CL 2  Z    0.000000   0.000000   0.000000   0.150003   0.000000
   22  CL 2  X    0.042585   0.000000   0.000000   0.000000  -0.011493
   23  CL 2  Y    0.005905   0.000000   0.000000   0.000000   0.056379
   24  CL 2  Z    0.000000   0.000000   0.000000  -0.387604   0.000000
   25  CL 2  X    0.091177   0.000000   0.000000   0.000000   0.059210
   26  CL 2  Y    0.012643   0.000000   0.000000   0.000000  -0.290452
   27  CL 2  Z    0.000000   0.000000   0.000000   0.681664   0.000000
   28  CL 2  S    0.000000   0.000000   0.000000   0.426138   0.000000
   29  CL 2  X   -0.025254   0.000000   0.000000   0.000000  -0.018372
   30  CL 2  Y   -0.003502   0.000000   0.000000   0.000000   0.090124
   31  CL 2  Z    0.000000   0.000000   0.000000  -0.398353   0.000000
   32  CL 2 XX    0.000000  -0.847709   0.177170   0.582582   0.000000
   33  CL 2 YY    0.000000   0.847709  -0.177170   0.582582   0.000000
   34  CL 2 ZZ    0.000000   0.000000   0.000000  -0.654420   0.000000
   35  CL 2 XY    0.000000   0.204578   0.978850   0.000000   0.000000
   36  CL 2 XZ    0.814639   0.000000   0.000000   0.000000  -0.122884
   37  CL 2 YZ    0.112965   0.000000   0.000000   0.000000   0.602807

                     26         27         28         29         30
                    1.7416     2.3384     2.4645     2.4645     2.5880
                     A          A          A          A          A   
    1  H  1  S    0.000000  -0.805309   0.000000   0.000000   0.323997
    2  H  1  S    0.000000   1.171129   0.000000   0.000000   0.868032
    3  H  1  S    0.000000  -1.420191   0.000000   0.000000  -0.148770
    4  H  1  X    0.945457   0.000000  -0.016528  -0.104091   0.000000
    5  H  1  Y    0.192735   0.000000  -0.104091   0.016528   0.000000
    6  H  1  Z    0.000000  -0.435790   0.000000   0.000000   1.292859
    7  CL 2  S    0.000000   0.003588   0.000000   0.000000  -0.009178
    8  CL 2  S    0.000000   0.009701   0.000000   0.000000  -0.026977
    9  CL 2  S    0.000000  -0.011120   0.000000   0.000000   0.056951
   10  CL 2  S    0.000000  -0.117793   0.000000   0.000000   0.169691
   11  CL 2  S    0.000000   0.157233   0.000000   0.000000  -0.220672
   12  CL 2  S    0.000000   0.366123   0.000000   0.000000  -0.844373
   13  CL 2  X    0.043187   0.000000   0.100483   0.632843   0.000000
   14  CL 2  Y    0.008804   0.000000   0.632843  -0.100483   0.000000
   15  CL 2  Z    0.000000   0.489807   0.000000   0.000000   0.356165
   16  CL 2  X    0.010260   0.000000   0.031910   0.200970   0.000000
   17  CL 2  Y    0.002092   0.000000   0.200970  -0.031910   0.000000
   18  CL 2  Z    0.000000   0.146792   0.000000   0.000000   0.132311
   19  CL 2  X   -0.093178   0.000000  -0.326765  -2.057969   0.000000
   20  CL 2  Y   -0.018995   0.000000  -2.057969   0.326765   0.000000
   21  CL 2  Z    0.000000  -1.471794   0.000000   0.000000  -1.441536
   22  CL 2  X    0.056379   0.000000   0.378336   2.382766   0.000000
   23  CL 2  Y    0.011493   0.000000   2.382766  -0.378336   0.000000
   24  CL 2  Z    0.000000   1.481413   0.000000   0.000000   2.720573
   25  CL 2  X   -0.290452   0.000000  -0.208686  -1.314310   0.000000
   26  CL 2  Y   -0.059210   0.000000  -1.314310   0.208686   0.000000
   27  CL 2  Z    0.000000  -0.889323   0.000000   0.000000  -1.030476
   28  CL 2  S    0.000000   0.531292   0.000000   0.000000   0.196514
   29  CL 2  X    0.090124   0.000000   0.072569   0.457041   0.000000
   30  CL 2  Y    0.018372   0.000000   0.457041  -0.072569   0.000000
   31  CL 2  Z    0.000000  -0.081498   0.000000   0.000000   0.297249
   32  CL 2 XX    0.000000  -0.220374   0.000000   0.000000   0.500987
   33  CL 2 YY    0.000000  -0.220374   0.000000   0.000000   0.500987
   34  CL 2 ZZ    0.000000   0.151594   0.000000   0.000000  -0.819448
   35  CL 2 XY    0.000000   0.000000   0.000000   0.000000   0.000000
   36  CL 2 XZ    0.602807   0.000000  -0.006351  -0.040000   0.000000
   37  CL 2 YZ    0.122884   0.000000  -0.040000   0.006351   0.000000

                     31         32         33         34         35
                    2.8386     4.1033    15.1167    16.8315    16.8315
                     A          A          A          A          A   
    1  H  1  S   -1.407670   0.070957   0.019174   0.000000   0.000000
    2  H  1  S    2.676100   0.190959   0.042726   0.000000   0.000000
    3  H  1  S   -1.440620  -0.208691  -0.086411   0.000000   0.000000
    4  H  1  X    0.000000   0.000000   0.000000   0.000383   0.024126
    5  H  1  Y    0.000000   0.000000   0.000000   0.024126  -0.000383
    6  H  1  Z    0.838651   0.338892   0.083329   0.000000   0.000000
    7  CL 2  S   -0.002829   0.055999  -0.116789   0.000000   0.000000
    8  CL 2  S   -0.009869   0.146153  -0.506367   0.000000   0.000000
    9  CL 2  S    0.038528  -0.084913   3.554012   0.000000   0.000000
   10  CL 2  S   -0.055200  -2.742027  -6.794654   0.000000   0.000000
   11  CL 2  S    0.134865   6.003373   7.853302   0.000000   0.000000
   12  CL 2  S   -0.459946   1.622316   0.627273   0.000000   0.000000
   13  CL 2  X    0.000000   0.000000   0.000000  -0.025286  -1.593459
   14  CL 2  Y    0.000000   0.000000   0.000000  -1.593459   0.025286
   15  CL 2  Z   -0.239710   0.015327  -0.010182   0.000000   0.000000
   16  CL 2  X    0.000000   0.000000   0.000000  -0.035590  -2.242849
   17  CL 2  Y    0.000000   0.000000   0.000000  -2.242849   0.035590
   18  CL 2  Z   -0.069328   0.006190  -0.017098   0.000000   0.000000
   19  CL 2  X    0.000000   0.000000   0.000000   0.040793   2.570734
   20  CL 2  Y    0.000000   0.000000   0.000000   2.570734  -0.040793
   21  CL 2  Z    0.673257  -0.124153  -0.008763   0.000000   0.000000
   22  CL 2  X    0.000000   0.000000   0.000000  -0.024267  -1.529251
   23  CL 2  Y    0.000000   0.000000   0.000000  -1.529251   0.024267
   24  CL 2  Z    0.019584   0.423116   0.094737   0.000000   0.000000
   25  CL 2  X    0.000000   0.000000   0.000000   0.011423   0.719868
   26  CL 2  Y    0.000000   0.000000   0.000000   0.719868  -0.011423
   27  CL 2  Z    0.538460  -0.202620  -0.062882   0.000000   0.000000
   28  CL 2  S    0.558897  -0.235858  -0.098680   0.000000   0.000000
   29  CL 2  X    0.000000   0.000000   0.000000  -0.004004  -0.252341
   30  CL 2  Y    0.000000   0.000000   0.000000  -0.252341   0.004004
   31  CL 2  Z   -0.522582  -0.015425  -0.013125   0.000000   0.000000
   32  CL 2 XX    0.103149  -2.666818  -2.594576   0.000000   0.000000
   33  CL 2 YY    0.103149  -2.666818  -2.594576   0.000000   0.000000
   34  CL 2 ZZ   -0.627172  -2.921586  -2.649932   0.000000   0.000000
   35  CL 2 XY    0.000000   0.000000   0.000000   0.000000   0.000000
   36  CL 2 XZ    0.000000   0.000000   0.000000   0.000094   0.005955
   37  CL 2 YZ    0.000000   0.000000   0.000000   0.005955  -0.000094

                     36         37
                   16.9127   226.7093
                     A          A   
    1  H  1  S   -0.078744  -0.003619
    2  H  1  S   -0.060655  -0.013119
    3  H  1  S    0.240320   0.025930
    4  H  1  X    0.000000   0.000000
    5  H  1  Y    0.000000   0.000000
    6  H  1  Z   -0.002301  -0.022443
    7  CL 2  S    0.001064  -1.558010
    8  CL 2  S    0.004952   1.978598
    9  CL 2  S   -0.038523  -1.895182
   10  CL 2  S    0.088165   2.204941
   11  CL 2  S   -0.123222  -2.164767
   12  CL 2  S   -0.026543  -0.164389
   13  CL 2  X    0.000000   0.000000
   14  CL 2  Y    0.000000   0.000000
   15  CL 2  Z   -1.607245  -0.001882
   16  CL 2  X    0.000000   0.000000
   17  CL 2  Y    0.000000   0.000000
   18  CL 2  Z   -2.255362  -0.001808
   19  CL 2  X    0.000000   0.000000
   20  CL 2  Y    0.000000   0.000000
   21  CL 2  Z    2.619450   0.009701
   22  CL 2  X    0.000000   0.000000
   23  CL 2  Y    0.000000   0.000000
   24  CL 2  Z   -1.609548  -0.030083
   25  CL 2  X    0.000000   0.000000
   26  CL 2  Y    0.000000   0.000000
   27  CL 2  Z    0.788051   0.019731
   28  CL 2  S   -0.126474   0.025948
   29  CL 2  X    0.000000   0.000000
   30  CL 2  Y    0.000000   0.000000
   31  CL 2  Z   -0.187664   0.003405
   32  CL 2 XX    0.033415   0.702369
   33  CL 2 YY    0.033415   0.702369
   34  CL 2 ZZ    0.066361   0.716904
   35  CL 2 XY    0.000000   0.000000
   36  CL 2 XZ    0.000000   0.000000
   37  CL 2 YZ    0.000000   0.000000
 ...... END OF RHF CALCULATION ......
 STEP CPU TIME =     0.16 TOTAL CPU TIME =        1.1 (    0.0 MIN)
 TOTAL WALL CLOCK TIME=        2.0 SECONDS, CPU UTILIZATION IS  53.00%

     ----------------------------------------------------------------
     PROPERTY VALUES FOR THE RHF   SELF-CONSISTENT FIELD WAVEFUNCTION
     ----------------------------------------------------------------

          -----------------
          ENERGY COMPONENTS
          -----------------

         WAVEFUNCTION NORMALIZATION =       1.0000000000

                ONE ELECTRON ENERGY =    -649.6157137562
                TWO ELECTRON ENERGY =     182.5632073502
           NUCLEAR REPULSION ENERGY =       6.9548389458
                                      ------------------
                       TOTAL ENERGY =    -460.0976674602

 ELECTRON-ELECTRON POTENTIAL ENERGY =     182.5632073502
  NUCLEUS-ELECTRON POTENTIAL ENERGY =   -1109.6777368153
   NUCLEUS-NUCLEUS POTENTIAL ENERGY =       6.9548389458
                                      ------------------
             TOTAL POTENTIAL ENERGY =    -920.1596905192
               TOTAL KINETIC ENERGY =     460.0620230591
                 VIRIAL RATIO (V/T) =       2.0000774774

  ...... PI ENERGY ANALYSIS ......

 ENERGY ANALYSIS:
            FOCK ENERGY=   -284.4893050904
          BARE H ENERGY=   -649.6157137562
     ELECTRONIC ENERGY =   -467.0525094233
         KINETIC ENERGY=    460.0620230591
          N-N REPULSION=      6.9548389458
           TOTAL ENERGY=   -460.0976704775
        SIGMA PART(1+2)=   -360.8720889296
               (K,V1,2)=    368.5676754646   -839.8934223068    110.4536579126
           PI PART(1+2)=   -106.1804204937
               (K,V1,2)=     91.4943475944   -269.7843145085     72.1095464203
  SIGMA SKELETON, ERROR=   -353.9172499838      0.0000000000
             MIXED PART= 0.00000E+00 0.00000E+00 0.00000E+00 0.00000E+00
 ...... END OF PI ENERGY ANALYSIS ......

          ---------------------------------------
          MULLIKEN AND LOWDIN POPULATION ANALYSES
          ---------------------------------------

     MULLIKEN ATOMIC POPULATION IN EACH MOLECULAR ORBITAL

                      1          2          3          4          5

                  2.000000   2.000000   2.000000   2.000000   2.000000

    1             0.000000   0.000045  -0.000016   0.000001   0.000001
    2             2.000000   1.999955   2.000016   1.999999   1.999999

                      6          7          8          9

                  2.000000   2.000000   2.000000   2.000000

    1             0.195261   0.627180   0.010431   0.010431
    2             1.804739   1.372820   1.989569   1.989569

               ----- POPULATIONS IN EACH AO -----
                             MULLIKEN      LOWDIN
              1  H  1  S      0.22052     0.24086
              2  H  1  S      0.51835     0.42175
              3  H  1  S      0.05515     0.15717
              4  H  1  X      0.01043     0.02262
              5  H  1  Y      0.01043     0.02262
              6  H  1  Z      0.02845     0.05296
              7  CL 2  S      0.77225     0.89704
              8  CL 2  S      1.19356     1.08977
              9  CL 2  S      0.94453     0.94381
             10  CL 2  S      1.03073     0.97336
             11  CL 2  S      1.02314     0.50350
             12  CL 2  S      0.96512     0.53130
             13  CL 2  X      2.13873     1.79748
             14  CL 2  Y      2.13873     1.79748
             15  CL 2  Z      2.11716     1.77592
             16  CL 2  X     -0.15741     0.09993
             17  CL 2  Y     -0.15741     0.09993
             18  CL 2  Z     -0.14532     0.07414
             19  CL 2  X      0.43552     0.56481
             20  CL 2  Y      0.43552     0.56481
             21  CL 2  Z      0.32266     0.44816
             22  CL 2  X      1.03605     0.91755
             23  CL 2  Y      1.03605     0.91755
             24  CL 2  Z      0.70602     0.60360
             25  CL 2  X      0.51844     0.50975
             26  CL 2  Y      0.51844     0.50975
             27  CL 2  Z      0.21736     0.32109
             28  CL 2  S      0.02537     0.11714
             29  CL 2  X      0.01777     0.08758
             30  CL 2  Y      0.01777     0.08758
             31  CL 2  Z      0.00243     0.05592
             32  CL 2 XX     -0.00756     0.26377
             33  CL 2 YY     -0.00756     0.26377
             34  CL 2 ZZ      0.01764     0.26494
             35  CL 2 XY      0.00000     0.00000
             36  CL 2 XZ      0.00048     0.00027
             37  CL 2 YZ      0.00048     0.00027

          ----- MULLIKEN ATOMIC OVERLAP POPULATIONS -----
          (OFF-DIAGONAL ELEMENTS NEED TO BE MULTIPLIED BY 2)

             1           2

    1    0.5506481
    2    0.2926858  16.8639803

          TOTAL MULLIKEN AND LOWDIN ATOMIC POPULATIONS
       ATOM         MULL.POP.    CHARGE          LOW.POP.     CHARGE
    1 H             0.843334    0.156666         0.917982    0.082018
    2 CL           17.156666   -0.156666        17.082018   -0.082018

          -------------------------------
          BOND ORDER AND VALENCE ANALYSIS     BOND ORDER THRESHOLD=0.050
          -------------------------------

                   BOND                       BOND                       BOND
  ATOM PAIR DIST  ORDER      ATOM PAIR DIST  ORDER      ATOM PAIR DIST  ORDER
    1   2  1.293  0.977

                       TOTAL       BONDED        FREE
      ATOM            VALENCE     VALENCE     VALENCE
    1 H                 0.977       0.977       0.000
    2 CL                0.977       0.977       0.000

          ---------------------
          ELECTROSTATIC MOMENTS
          ---------------------

 POINT   1           X           Y           Z (BOHR)    CHARGE
                 0.000000    0.000000    0.000000        0.00 (A.U.)
         DX          DY          DZ         /D/  (DEBYE)
     0.000000    0.000000   -1.474034    1.474034
 ...... END OF PROPERTY EVALUATION ......
 STEP CPU TIME =     0.05 TOTAL CPU TIME =        1.1 (    0.0 MIN)
 TOTAL WALL CLOCK TIME=        2.0 SECONDS, CPU UTILIZATION IS  55.50%

 BEGINNING ONE ELECTRON GRADIENT...
 ..... END OF 1-ELECTRON GRADIENT ......
 STEP CPU TIME =     0.03 TOTAL CPU TIME =        1.1 (    0.0 MIN)
 TOTAL WALL CLOCK TIME=        2.0 SECONDS, CPU UTILIZATION IS  57.00%

          ----------------------
          GRADIENT OF THE ENERGY
          ----------------------

 THE MINIMUM MEMORY REQUIRED FOR THIS RUN IS      76533 WORDS.
 USING     988338 WORDS FOR 2E- DERIVATIVE INTEGRAL CONTRIBUTIONS.
 THE COARSE/FINE SCHWARZ SCREENINGS SKIPPED          0/         0 BLOCKS.
 THE NUMBER OF GRADIENT INTEGRAL BLOCKS COMPUTED WAS      7540
 ...... END OF 2-ELECTRON GRADIENT ......
 STEP CPU TIME =     0.47 TOTAL CPU TIME =        1.6 (    0.0 MIN)
 TOTAL WALL CLOCK TIME=        2.0 SECONDS, CPU UTILIZATION IS  80.50%

          NSERCH=  0     ENERGY=    -460.0976675

                                 -----------------------
                                 GRADIENT (HARTREE/BOHR)
                                 -----------------------
        ATOM     ZNUC       DE/DX         DE/DY         DE/DZ
 --------------------------------------------------------------
  1  H            1.0     0.0000000     0.0000000    -0.0150468
  2  CL          17.0     0.0000000     0.0000000     0.0150468

          MAXIMUM GRADIENT =  0.0150468    RMS GRADIENT = 0.0086873
          FORCE CONSTANT MATRIX NOT UPDATED --- TAKING FIRST STEP
          MIN SEARCH, CORRECT HESSIAN, TRYING PURE NR STEP
               NR STEP HAS LENGTH         =   0.029748
          RADIUS OF STEP TAKEN=   0.02975  CURRENT TRUST RADIUS=   0.30000

 BEGINNING GEOMETRY SEARCH POINT NSERCH=   1 ...

 COORDINATES OF ALL ATOMS ARE (ANGS)
   ATOM   CHARGE       X              Y              Z
 ------------------------------------------------------------
 H           1.0   0.0000000000   0.0000000000  -1.2461237581
 CL         17.0   0.0000000000   0.0000000000   0.0251037657

 THE CURRENT FULLY SUBSTITUTED Z-MATRIX IS
 H   
 CL     1   1.2712275

          INTERNUCLEAR DISTANCES (ANGS.)
          ------------------------------

                1 H          2 CL    

   1 H       0.0000000    1.2712275 *
   2 CL      1.2712275 *  0.0000000  

  * ... LESS THAN  3.000

 ...... END OF ONE-ELECTRON INTEGRALS ......
 STEP CPU TIME =     0.01 TOTAL CPU TIME =        1.6 (    0.0 MIN)
 TOTAL WALL CLOCK TIME=        2.0 SECONDS, CPU UTILIZATION IS  81.00%
 TOTAL NUMBER OF NONZERO TWO-ELECTRON INTEGRALS =               55787
          4 INTEGRAL RECORDS WERE STORED ON DISK FILE  8.
  ...... END OF TWO-ELECTRON INTEGRALS .....
 STEP CPU TIME =     0.43 TOTAL CPU TIME =        2.0 (    0.0 MIN)
 TOTAL WALL CLOCK TIME=        2.0 SECONDS, CPU UTILIZATION IS 102.50%

          --------------------------
                 RHF SCF CALCULATION
          --------------------------
     DENSITY MATRIX CONV=  5.00E-05

 ITER EX DEM     TOTAL ENERGY        E CHANGE  DENSITY CHANGE     ORB. GRAD
          ---------------START SECOND ORDER SCF---------------
   1  0  0     -460.0979113595  -460.0979113595   0.003399924   0.004604304
   2  1  0     -460.0979992160    -0.0000878565   0.001239968   0.000500008
   3  2  0     -460.0980032173    -0.0000040013   0.000268290   0.000141359
   4  3  0     -460.0980033755    -0.0000001581   0.000050230   0.000034267
   5  4  0     -460.0980033834    -0.0000000079   0.000005994   0.000003417
   6  5  0     -460.0980033836    -0.0000000002   0.000004396   0.000001097

          -----------------
          DENSITY CONVERGED
          -----------------
     TIME TO FORM FOCK OPERATORS=       0.1 SECONDS (       0.0 SEC/ITER)
     TIME TO SOLVE SCF EQUATIONS=       0.0 SECONDS (       0.0 SEC/ITER)

 FINAL RHF ENERGY IS     -460.0980033836 AFTER   6 ITERATIONS
 ...... END OF RHF CALCULATION ......
 STEP CPU TIME =     0.09 TOTAL CPU TIME =        2.1 (    0.0 MIN)
 TOTAL WALL CLOCK TIME=        2.0 SECONDS, CPU UTILIZATION IS 107.00%
 ..... END OF 1-ELECTRON GRADIENT ......
 STEP CPU TIME =     0.03 TOTAL CPU TIME =        2.2 (    0.0 MIN)
 TOTAL WALL CLOCK TIME=        2.0 SECONDS, CPU UTILIZATION IS 108.50%
 ...... END OF 2-ELECTRON GRADIENT ......
 STEP CPU TIME =     0.47 TOTAL CPU TIME =        2.6 (    0.0 MIN)
 TOTAL WALL CLOCK TIME=        2.0 SECONDS, CPU UTILIZATION IS 132.00%

          NSERCH=  1     ENERGY=    -460.0980034

                                 -----------------------
                                 GRADIENT (HARTREE/BOHR)
                                 -----------------------
        ATOM     ZNUC       DE/DX         DE/DY         DE/DZ
 --------------------------------------------------------------
  1  H            1.0     0.0000000     0.0000000    -0.0006373
  2  CL          17.0     0.0000000     0.0000000     0.0006373

          MAXIMUM GRADIENT =  0.0006373    RMS GRADIENT = 0.0003680
          HESSIAN UPDATED USING THE BFGS FORMULA
             ACTUAL ENERGY CHANGE WAS  -0.0003359234
          PREDICTED ENERGY CHANGE WAS  -0.0003165072 RATIO=  1.061
          MIN SEARCH, CORRECT HESSIAN, TRYING PURE NR STEP
               NR STEP HAS LENGTH         =   0.001316
          RADIUS OF STEP TAKEN=   0.00132  CURRENT TRUST RADIUS=   0.05950

 BEGINNING GEOMETRY SEARCH POINT NSERCH=   2 ...

 COORDINATES OF ALL ATOMS ARE (ANGS)
   ATOM   CHARGE       X              Y              Z
 ------------------------------------------------------------
 H           1.0   0.0000000000   0.0000000000  -1.2456314199
 CL         17.0   0.0000000000   0.0000000000   0.0246114275

 THE CURRENT FULLY SUBSTITUTED Z-MATRIX IS
 H   
 CL     1   1.2702428

          INTERNUCLEAR DISTANCES (ANGS.)
          ------------------------------

                1 H          2 CL    

   1 H       0.0000000    1.2702428 *
   2 CL      1.2702428 *  0.0000000  

  * ... LESS THAN  3.000

 ...... END OF ONE-ELECTRON INTEGRALS ......
 STEP CPU TIME =     0.01 TOTAL CPU TIME =        2.6 (    0.0 MIN)
 TOTAL WALL CLOCK TIME=        2.0 SECONDS, CPU UTILIZATION IS 132.50%
 TOTAL NUMBER OF NONZERO TWO-ELECTRON INTEGRALS =               55787
          4 INTEGRAL RECORDS WERE STORED ON DISK FILE  8.
  ...... END OF TWO-ELECTRON INTEGRALS .....
 STEP CPU TIME =     0.43 TOTAL CPU TIME =        3.1 (    0.1 MIN)
 TOTAL WALL CLOCK TIME=        2.0 SECONDS, CPU UTILIZATION IS 154.00%

          --------------------------
                 RHF SCF CALCULATION
          --------------------------
     DENSITY MATRIX CONV=  1.00E-05

 ITER EX DEM     TOTAL ENERGY        E CHANGE  DENSITY CHANGE     ORB. GRAD
          ---------------START SECOND ORDER SCF---------------
   1  0  0     -460.0980037552  -460.0980037552   0.000154372   0.000204328
   2  1  0     -460.0980039313    -0.0000001762   0.000055101   0.000022848
   3  2  0     -460.0980039393    -0.0000000080   0.000011865   0.000006176
   4  3  0     -460.0980039397    -0.0000000003   0.000002268   0.000001537
   5  4  0     -460.0980039397     0.0000000000   0.000000283   0.000000152

          -----------------
          DENSITY CONVERGED
          -----------------
     TIME TO FORM FOCK OPERATORS=       0.0 SECONDS (       0.0 SEC/ITER)
     TIME TO SOLVE SCF EQUATIONS=       0.0 SECONDS (       0.0 SEC/ITER)

 FINAL RHF ENERGY IS     -460.0980039397 AFTER   5 ITERATIONS
 ...... END OF RHF CALCULATION ......
 STEP CPU TIME =     0.08 TOTAL CPU TIME =        3.2 (    0.1 MIN)
 TOTAL WALL CLOCK TIME=        4.0 SECONDS, CPU UTILIZATION IS  79.00%
 ..... END OF 1-ELECTRON GRADIENT ......
 STEP CPU TIME =     0.03 TOTAL CPU TIME =        3.2 (    0.1 MIN)
 TOTAL WALL CLOCK TIME=        4.0 SECONDS, CPU UTILIZATION IS  79.75%
 ...... END OF 2-ELECTRON GRADIENT ......
 STEP CPU TIME =     0.47 TOTAL CPU TIME =        3.7 (    0.1 MIN)
 TOTAL WALL CLOCK TIME=        4.0 SECONDS, CPU UTILIZATION IS  91.50%

          NSERCH=  2     ENERGY=    -460.0980039

                                 -----------------------
                                 GRADIENT (HARTREE/BOHR)
                                 -----------------------
        ATOM     ZNUC       DE/DX         DE/DY         DE/DZ
 --------------------------------------------------------------
  1  H            1.0     0.0000000     0.0000000     0.0000403
  2  CL          17.0     0.0000000     0.0000000    -0.0000403

          MAXIMUM GRADIENT =  0.0000403    RMS GRADIENT = 0.0000232

      ***** EQUILIBRIUM GEOMETRY LOCATED *****
 COORDINATES OF ALL ATOMS ARE (ANGS)
   ATOM   CHARGE       X              Y              Z
 ------------------------------------------------------------
 H           1.0   0.0000000000   0.0000000000  -1.2456314199
 CL         17.0   0.0000000000   0.0000000000   0.0246114275

 THE CURRENT FULLY SUBSTITUTED Z-MATRIX IS
 H   
 CL     1   1.2702428

          INTERNUCLEAR DISTANCES (ANGS.)
          ------------------------------

                1 H          2 CL    

   1 H       0.0000000    1.2702428 *
   2 CL      1.2702428 *  0.0000000  

  * ... LESS THAN  3.000


          NUCLEAR ENERGY    =        7.0821207574
          ELECTRONIC ENERGY =     -467.1801246970
          TOTAL ENERGY      =     -460.0980039397

          ------------------
          MOLECULAR ORBITALS
          ------------------

                      1          2          3          4          5
                 -104.8489   -10.5753    -8.0439    -8.0407    -8.0407
                     A          A          A          A          A   
    1  H  1  S   -0.000002  -0.000130   0.000472   0.000000   0.000000
    2  H  1  S   -0.000002   0.000673   0.000168   0.000000   0.000000
    3  H  1  S   -0.000002  -0.001128  -0.000855   0.000000   0.000000
    4  H  1  X    0.000000   0.000000   0.000000  -0.000004   0.000035
    5  H  1  Y    0.000000   0.000000   0.000000  -0.000035  -0.000004
    6  H  1  Z    0.000005   0.000729  -0.000051   0.000000   0.000000
    7  CL 2  S    0.409235   0.121075   0.000665   0.000000   0.000000
    8  CL 2  S    0.656739   0.331309   0.001852   0.000000   0.000000
    9  CL 2  S    0.012900  -0.529456  -0.003528   0.000000   0.000000
   10  CL 2  S   -0.002198  -0.582879  -0.002903   0.000000   0.000000
   11  CL 2  S    0.001580  -0.054514   0.001179   0.000000   0.000000
   12  CL 2  S    0.000057   0.007788   0.000169   0.000000   0.000000
   13  CL 2  X    0.000000   0.000000   0.000000  -0.131757   1.054813
   14  CL 2  Y    0.000000   0.000000   0.000000  -1.054813  -0.131757
   15  CL 2  Z   -0.000078   0.005027  -1.062217   0.000000   0.000000
   16  CL 2  X    0.000000   0.000000   0.000000  -0.026389   0.211263
   17  CL 2  Y    0.000000   0.000000   0.000000  -0.211263  -0.026389
   18  CL 2  Z   -0.000029   0.001168  -0.213180   0.000000   0.000000
   19  CL 2  X    0.000000   0.000000   0.000000  -0.005766   0.046163
   20  CL 2  Y    0.000000   0.000000   0.000000  -0.046163  -0.005766
   21  CL 2  Z    0.000055   0.000631  -0.048528   0.000000   0.000000
   22  CL 2  X    0.000000   0.000000   0.000000   0.000603  -0.004825
   23  CL 2  Y    0.000000   0.000000   0.000000   0.004825   0.000603
   24  CL 2  Z   -0.000033   0.000779   0.005570   0.000000   0.000000
   25  CL 2  X    0.000000   0.000000   0.000000  -0.000276   0.002212
   26  CL 2  Y    0.000000   0.000000   0.000000  -0.002212  -0.000276
   27  CL 2  Z    0.000014  -0.000447  -0.002776   0.000000   0.000000
   28  CL 2  S   -0.000016  -0.001037   0.000455   0.000000   0.000000
   29  CL 2  X    0.000000   0.000000   0.000000   0.000092  -0.000739
   30  CL 2  Y    0.000000   0.000000   0.000000   0.000739   0.000092
   31  CL 2  Z   -0.000007  -0.000253   0.000627   0.000000   0.000000
   32  CL 2 XX   -0.000489   0.005737  -0.000460   0.000000   0.000000
   33  CL 2 YY   -0.000489   0.005737  -0.000460   0.000000   0.000000
   34  CL 2 ZZ   -0.000483   0.004758   0.000359   0.000000   0.000000
   35  CL 2 XY    0.000000   0.000000   0.000000   0.000000   0.000000
   36  CL 2 XZ    0.000000   0.000000   0.000000   0.000038  -0.000307
   37  CL 2 YZ    0.000000   0.000000   0.000000   0.000307   0.000038

                      6          7          8          9         10
                   -1.1201    -0.6278    -0.4769    -0.4769     0.0939
                     A          A          A          A          A   
    1  H  1  S    0.088916  -0.155338   0.000000   0.000000  -0.002154
    2  H  1  S    0.117539  -0.302228   0.000000   0.000000  -0.147496
    3  H  1  S   -0.007124  -0.083731   0.000000   0.000000   0.332047
    4  H  1  X    0.000000   0.000000   0.023711  -0.001382   0.000000
    5  H  1  Y    0.000000   0.000000   0.001382   0.023711   0.000000
    6  H  1  Z    0.027358  -0.036589   0.000000   0.000000   0.014571
    7  CL 2  S    0.034350   0.010568   0.000000   0.000000   0.008583
    8  CL 2  S    0.100289   0.030925   0.000000   0.000000   0.024489
    9  CL 2  S   -0.208282  -0.064832   0.000000   0.000000  -0.044634
   10  CL 2  S   -0.379929  -0.126352   0.000000   0.000000  -0.145264
   11  CL 2  S    0.601185   0.196980   0.000000   0.000000   0.136184
   12  CL 2  S    0.485180   0.293043   0.000000   0.000000   0.826482
   13  CL 2  X    0.000000   0.000000  -0.290223   0.016919   0.000000
   14  CL 2  Y    0.000000   0.000000  -0.016919  -0.290223   0.000000
   15  CL 2  Z    0.038277  -0.240958   0.000000   0.000000   0.066734
   16  CL 2  X    0.000000   0.000000  -0.048954   0.002854   0.000000
   17  CL 2  Y    0.000000   0.000000  -0.002854  -0.048954   0.000000
   18  CL 2  Z    0.007583  -0.042381   0.000000   0.000000   0.012341
   19  CL 2  X    0.000000   0.000000   0.283699  -0.016538   0.000000
   20  CL 2  Y    0.000000   0.000000   0.016538   0.283699   0.000000
   21  CL 2  Z   -0.033461   0.231753   0.000000   0.000000  -0.073399
   22  CL 2  X    0.000000   0.000000   0.543623  -0.031691   0.000000
   23  CL 2  Y    0.000000   0.000000   0.031691   0.543623   0.000000
   24  CL 2  Z   -0.044283   0.395632   0.000000   0.000000  -0.105571
   25  CL 2  X    0.000000   0.000000   0.319269  -0.018612   0.000000
   26  CL 2  Y    0.000000   0.000000   0.018612   0.319269   0.000000
   27  CL 2  Z   -0.006771   0.135987   0.000000   0.000000  -0.316457
   28  CL 2  S    0.016843   0.037493   0.000000   0.000000  -1.387753
   29  CL 2  X    0.000000   0.000000   0.018420  -0.001074   0.000000
   30  CL 2  Y    0.000000   0.000000   0.001074   0.018420   0.000000
   31  CL 2  Z   -0.004623   0.001951   0.000000   0.000000   0.830174
   32  CL 2 XX   -0.010794   0.018949   0.000000   0.000000  -0.068953
   33  CL 2 YY   -0.010794   0.018949   0.000000   0.000000  -0.068953
   34  CL 2 ZZ    0.017767  -0.064422   0.000000   0.000000  -0.048138
   35  CL 2 XY    0.000000   0.000000   0.000000   0.000000   0.000000
   36  CL 2 XZ    0.000000   0.000000  -0.013389   0.000781   0.000000
   37  CL 2 YZ    0.000000   0.000000  -0.000781  -0.013389   0.000000

                     11         12         13         14         15
                    0.1245     0.1304     0.1304     0.1735     0.4778
                     A          A          A          A          A   
    1  H  1  S   -0.038772   0.000000   0.000000   0.125077   0.092691
    2  H  1  S   -0.028422   0.000000   0.000000   0.186683   1.666132
    3  H  1  S   -0.283690   0.000000   0.000000   2.666318  -2.980792
    4  H  1  X    0.000000  -0.000107  -0.003014   0.000000   0.000000
    5  H  1  Y    0.000000  -0.003014   0.000107   0.000000   0.000000
    6  H  1  Z   -0.020829   0.000000   0.000000  -0.010270   0.059656
    7  CL 2  S    0.006472   0.000000   0.000000  -0.004753  -0.002075
    8  CL 2  S    0.018567   0.000000   0.000000  -0.013589  -0.006110
    9  CL 2  S   -0.034908   0.000000   0.000000   0.024990   0.013130
   10  CL 2  S   -0.104995   0.000000   0.000000   0.079569   0.025878
   11  CL 2  S    0.105163   0.000000   0.000000  -0.049660   0.029338
   12  CL 2  S    0.608826   0.000000   0.000000  -0.636923  -0.060770
   13  CL 2  X    0.000000  -0.002949  -0.083225   0.000000   0.000000
   14  CL 2  Y    0.000000  -0.083225   0.002949   0.000000   0.000000
   15  CL 2  Z   -0.040819   0.000000   0.000000  -0.128152  -0.017820
   16  CL 2  X    0.000000  -0.000696  -0.019628   0.000000   0.000000
   17  CL 2  Y    0.000000  -0.019628   0.000696   0.000000   0.000000
   18  CL 2  Z   -0.011801   0.000000   0.000000  -0.023532  -0.004391
   19  CL 2  X    0.000000   0.004493   0.126784   0.000000   0.000000
   20  CL 2  Y    0.000000   0.126784  -0.004493   0.000000   0.000000
   21  CL 2  Z    0.078888   0.000000   0.000000   0.145079   0.015527
   22  CL 2  X    0.000000  -0.000671  -0.018941   0.000000   0.000000
   23  CL 2  Y    0.000000  -0.018941   0.000671   0.000000   0.000000
   24  CL 2  Z   -0.089864   0.000000   0.000000   0.171634   0.015177
   25  CL 2  X    0.000000   0.026978   0.761290   0.000000   0.000000
   26  CL 2  Y    0.000000   0.761290  -0.026978   0.000000   0.000000
   27  CL 2  Z    0.539150   0.000000   0.000000   1.071346   0.746997
   28  CL 2  S   -0.590080   0.000000   0.000000  -1.717238   1.424956
   29  CL 2  X    0.000000  -0.050833  -1.434415   0.000000   0.000000
   30  CL 2  Y    0.000000  -1.434415   0.050833   0.000000   0.000000
   31  CL 2  Z   -1.295944   0.000000   0.000000   0.624352  -1.306671
   32  CL 2 XX   -0.032036   0.000000   0.000000  -0.014707  -0.079117
   33  CL 2 YY   -0.032036   0.000000   0.000000  -0.014707  -0.079117
   34  CL 2 ZZ   -0.057291   0.000000   0.000000   0.136619   0.172437
   35  CL 2 XY    0.000000   0.000000   0.000000   0.000000   0.000000
   36  CL 2 XZ    0.000000  -0.000123  -0.003463   0.000000   0.000000
   37  CL 2 YZ    0.000000  -0.003463   0.000123   0.000000   0.000000

                     16         17         18         19
                    0.6182     0.6256     0.6256     0.9126
                     A          A          A          A   
    1  H  1  S   -0.072427   0.000000   0.000000  -0.025198
    2  H  1  S   -0.574207   0.000000   0.000000   0.062422
    3  H  1  S    1.856675   0.000000   0.000000   0.620096
    4  H  1  X    0.000000  -0.000008   0.000730   0.000000
    5  H  1  Y    0.000000  -0.000730  -0.000008   0.000000
    6  H  1  Z   -0.003474   0.000000   0.000000   0.143304
    7  CL 2  S    0.000821   0.000000   0.000000   0.028000
    8  CL 2  S    0.002904   0.000000   0.000000   0.088167
    9  CL 2  S   -0.011376   0.000000   0.000000  -0.250625
   10  CL 2  S    0.021337   0.000000   0.000000  -0.017503
   11  CL 2  S    0.021094   0.000000   0.000000   1.441403
   12  CL 2  S   -0.340378   0.000000   0.000000  -3.221965
   13  CL 2  X    0.000000  -0.001883   0.166184   0.000000
   14  CL 2  Y    0.000000  -0.166184  -0.001883   0.000000
   15  CL 2  Z    0.188997   0.000000   0.000000   0.020698
   16  CL 2  X    0.000000  -0.000027   0.002417   0.000000
   17  CL 2  Y    0.000000  -0.002417  -0.000027   0.000000
   18  CL 2  Z    0.006912   0.000000   0.000000   0.010523
   19  CL 2  X    0.000000   0.000251  -0.022172   0.000000
   20  CL 2  Y    0.000000   0.022172   0.000251   0.000000
   21  CL 2  Z   -0.035300   0.000000   0.000000  -0.086802
   22  CL 2  X    0.000000   0.015353  -1.354842   0.000000
   23  CL 2  Y    0.000000   1.354842   0.015353   0.000000
   24  CL 2  Z   -1.460672   0.000000   0.000000   0.217672
   25  CL 2  X    0.000000  -0.025378   2.239581   0.000000
   26  CL 2  Y    0.000000  -2.239581  -0.025378   0.000000
   27  CL 2  Z    2.376656   0.000000   0.000000   0.028047
   28  CL 2  S   -0.874182   0.000000   0.000000   0.561405
   29  CL 2  X    0.000000   0.011578  -1.021737   0.000000
   30  CL 2  Y    0.000000   1.021737   0.011578   0.000000
   31  CL 2  Z   -0.417150   0.000000   0.000000   0.235390
   32  CL 2 XX    0.051482   0.000000   0.000000   0.455655
   33  CL 2 YY    0.051482   0.000000   0.000000   0.455655
   34  CL 2 ZZ    0.026800   0.000000   0.000000   0.615597
   35  CL 2 XY    0.000000   0.000000   0.000000   0.000000
   36  CL 2 XZ    0.000000  -0.000113   0.009986   0.000000
   37  CL 2 YZ    0.000000  -0.009986  -0.000113   0.000000

     ----------------------------------------------------------------
     PROPERTY VALUES FOR THE RHF   SELF-CONSISTENT FIELD WAVEFUNCTION
     ----------------------------------------------------------------

          -----------------
          ENERGY COMPONENTS
          -----------------

         WAVEFUNCTION NORMALIZATION =       1.0000000000

                ONE ELECTRON ENERGY =    -649.8575194232
                TWO ELECTRON ENERGY =     182.6773947261
           NUCLEAR REPULSION ENERGY =       7.0821207574
                                      ------------------
                       TOTAL ENERGY =    -460.0980039397

 ELECTRON-ELECTRON POTENTIAL ENERGY =     182.6773947261
  NUCLEUS-ELECTRON POTENTIAL ENERGY =   -1109.9572092899
   NUCLEUS-NUCLEUS POTENTIAL ENERGY =       7.0821207574
                                      ------------------
             TOTAL POTENTIAL ENERGY =    -920.1976938064
               TOTAL KINETIC ENERGY =     460.0996898667
                 VIRIAL RATIO (V/T) =       1.9999963357

  ...... PI ENERGY ANALYSIS ......

 ENERGY ANALYSIS:
            FOCK ENERGY=   -284.5027235728
          BARE H ENERGY=   -649.8575194232
     ELECTRONIC ENERGY =   -467.1801214980
         KINETIC ENERGY=    460.0996898667
          N-N REPULSION=      7.0821207574
           TOTAL ENERGY=   -460.0980007407
        SIGMA PART(1+2)=   -360.9746622751
               (K,V1,2)=    368.6073400933   -840.1245300354    110.5425276670
           PI PART(1+2)=   -106.2054592229
               (K,V1,2)=     91.4923497734   -269.8326792545     72.1348702582
  SIGMA SKELETON, ERROR=   -353.8925415177      0.0000000000
             MIXED PART= 0.00000E+00 0.00000E+00 0.00000E+00 0.00000E+00
 ...... END OF PI ENERGY ANALYSIS ......

          ---------------------------------------
          MULLIKEN AND LOWDIN POPULATION ANALYSES
          ---------------------------------------

     MULLIKEN ATOMIC POPULATION IN EACH MOLECULAR ORBITAL

                      1          2          3          4          5

                  2.000000   2.000000   2.000000   2.000000   2.000000

    1             0.000000   0.000047  -0.000021   0.000001   0.000001
    2             2.000000   1.999953   2.000021   1.999999   1.999999

                      6          7          8          9

                  2.000000   2.000000   2.000000   2.000000

    1             0.208006   0.617767   0.011226   0.011226
    2             1.791994   1.382233   1.988774   1.988774

               ----- POPULATIONS IN EACH AO -----
                             MULLIKEN      LOWDIN
              1  H  1  S      0.22813     0.24869
              2  H  1  S      0.51963     0.42271
              3  H  1  S      0.04924     0.15469
              4  H  1  X      0.01123     0.02470
              5  H  1  Y      0.01123     0.02470
              6  H  1  Z      0.02879     0.05368
              7  CL 2  S      0.77224     0.89703
              8  CL 2  S      1.19357     1.08977
              9  CL 2  S      0.94439     0.94370
             10  CL 2  S      1.03087     0.97339
             11  CL 2  S      1.02216     0.50207
             12  CL 2  S      0.96332     0.52853
             13  CL 2  X      2.13870     1.79746
             14  CL 2  Y      2.13870     1.79746
             15  CL 2  Z      2.11776     1.77631
             16  CL 2  X     -0.15742     0.09991
             17  CL 2  Y     -0.15742     0.09991
             18  CL 2  Z     -0.14573     0.07479
             19  CL 2  X      0.43549     0.56465
             20  CL 2  Y      0.43549     0.56465
             21  CL 2  Z      0.32679     0.45033
             22  CL 2  X      1.03589     0.91661
             23  CL 2  Y      1.03589     0.91661
             24  CL 2  Z      0.70458     0.60525
             25  CL 2  X      0.51799     0.50901
             26  CL 2  Y      0.51799     0.50901
             27  CL 2  Z      0.21264     0.31775
             28  CL 2  S      0.02616     0.11617
             29  CL 2  X      0.01761     0.08738
             30  CL 2  Y      0.01761     0.08738
             31  CL 2  Z      0.00252     0.05460
             32  CL 2 XX     -0.00777     0.26284
             33  CL 2 YY     -0.00777     0.26284
             34  CL 2 ZZ      0.01846     0.26485
             35  CL 2 XY      0.00000     0.00000
             36  CL 2 XZ      0.00051     0.00028
             37  CL 2 YZ      0.00051     0.00028

          ----- MULLIKEN ATOMIC OVERLAP POPULATIONS -----
          (OFF-DIAGONAL ELEMENTS NEED TO BE MULTIPLIED BY 2)

             1           2

    1    0.5528366
    2    0.2954163  16.8563308

          TOTAL MULLIKEN AND LOWDIN ATOMIC POPULATIONS
       ATOM         MULL.POP.    CHARGE          LOW.POP.     CHARGE
    1 H             0.848253    0.151747         0.929178    0.070822
    2 CL           17.151747   -0.151747        17.070822   -0.070822

          -------------------------------
          BOND ORDER AND VALENCE ANALYSIS     BOND ORDER THRESHOLD=0.050
          -------------------------------

                   BOND                       BOND                       BOND
  ATOM PAIR DIST  ORDER      ATOM PAIR DIST  ORDER      ATOM PAIR DIST  ORDER
    1   2  1.270  0.980

                       TOTAL       BONDED        FREE
      ATOM            VALENCE     VALENCE     VALENCE
    1 H                 0.980       0.980       0.000
    2 CL                0.980       0.980       0.000

          ---------------------
          ELECTROSTATIC MOMENTS
          ---------------------

 POINT   1           X           Y           Z (BOHR)    CHARGE
                 0.000000    0.000000   -0.020735        0.00 (A.U.)
         DX          DY          DZ         /D/  (DEBYE)
     0.000000    0.000000   -1.449162    1.449162
 ...... END OF PROPERTY EVALUATION ......
 STEP CPU TIME =     0.07 TOTAL CPU TIME =        3.7 (    0.1 MIN)
 TOTAL WALL CLOCK TIME=        4.0 SECONDS, CPU UTILIZATION IS  93.25%
  $VIB   
          IVIB=   0 IATOM=   0 ICOORD=   0 E=     -460.0980039397
  0.000000000E+00 0.000000000E+00 4.025111180E-05 0.000000000E+00 0.000000000E+00
 -4.025111122E-05
  0.000000000E+00 3.529563363E-20-1.449162403E+00
 ......END OF GEOMETRY SEARCH......
 STEP CPU TIME =     0.00 TOTAL CPU TIME =        3.7 (    0.1 MIN)
 TOTAL WALL CLOCK TIME=        4.0 SECONDS, CPU UTILIZATION IS  93.25%
 988362 WORDS OF DYNAMIC MEMORY USED
 EXECUTION OF GAMESS TERMINATED NORMALLY Thu Mar 19 11:18:55 2009
 DDI: 262808 bytes (0.3 MB / 0 MWords) used by master data server.

 ----------------------------------------
 CPU timing information for all processes
 ========================================
 0: 3.580000 + 0.160000 = 3.740000
 ----------------------------------------
 ddikick.x: exited gracefully.