 Distributed Data Interface kickoff program.
 Initiating 1 compute processes on 1 nodes to run the following command:
 /home/instructor/gamess/gamess.April2008R1.x /home/instructor/webmo/gutow/140/input 

          ******************************************************
          *         GAMESS VERSION = 11 APR 2008 (R1)          *
          *             FROM IOWA STATE UNIVERSITY             *
          * M.W.SCHMIDT, K.K.BALDRIDGE, J.A.BOATZ, S.T.ELBERT, *
          *   M.S.GORDON, J.H.JENSEN, S.KOSEKI, N.MATSUNAGA,   *
          *          K.A.NGUYEN, S.J.SU, T.L.WINDUS,           *
          *       TOGETHER WITH M.DUPUIS, J.A.MONTGOMERY       *
          *         J.COMPUT.CHEM.  14, 1347-1363(1993)        *
          **************** 32 BIT LINUX VERSION ****************

     SINCE 1993, STUDENTS AND POSTDOCS WORKING AT IOWA STATE UNIVERSITY
     AND ALSO IN THEIR VARIOUS JOBS AFTER LEAVING ISU HAVE MADE IMPORTANT
     CONTRIBUTIONS TO THE CODE:
     IVANA ADAMOVIC, CHRISTINE AIKENS, YURI ALEXEEV, POOJA ARORA, ROB BELL,
     PRADIPTA BANDYOPADHYAY, JONATHAN BENTZ, BRETT BODE, GALINA CHABAN,
     WEI CHEN, CHEOL HO CHOI, PAUL DAY, TIM DUDLEY, DMITRI FEDOROV,
     GRAHAM FLETCHER, MARK FREITAG, KURT GLAESEMANN, DAN KEMP, GRANT MERRILL,
     JONATHAN MULLIN, TAKESHI NAGATA, SEAN NEDD, HEATHER NETZLOFF,
     BOSILJKA NJEGIC, RYAN OLSON, MIKE PAK, JIM SHOEMAKER, LYUDMILA SLIPCHENKO,
     SAROM SOK, JIE SONG, TETSUYA TAKETSUGU, SIMON WEBB, SOOHAENG YOO.

     ADDITIONAL CODE HAS BEEN PROVIDED BY COLLABORATORS IN OTHER GROUPS:
     IOWA STATE UNIVERSITY: JOE IVANIC, KLAUS RUEDENBERG
     UNIVERSITY OF TOKYO: KIMIHIKO HIRAO, TAKAHITO NAKAJIMA,
          TAKAO TSUNEDA, MUNEAKI KAMIYA, SUSUMU YANAGISAWA,
          KIYOSHI YAGI, MAHITO CHIBA, SEIKEN TOKURA, NAOAKI KAWAKAMI
     UNIVERSITY OF AARHUS: FRANK JENSEN
     UNIVERSITY OF IOWA: VISVALDAS KAIRYS, HUI LI
     NATIONAL INST. OF STANDARDS AND TECHNOLOGY: WALT STEVENS, DAVID GARMER
     UNIVERSITY OF PISA: BENEDETTA MENNUCCI, JACOPO TOMASI
     UNIVERSITY OF MEMPHIS: HENRY KURTZ, PRAKASHAN KORAMBATH
     UNIVERSITY OF ALBERTA: MARIUSZ KLOBUKOWSKI
     UNIVERSITY OF NEW ENGLAND: MARK SPACKMAN
     MIE UNIVERSITY: HIROAKI UMEDA
     MICHIGAN STATE UNIVERSITY:
          KAROL KOWALSKI, MARTA WLOCH, JEFFREY R. GOUR, PIOTR PIECUCH
     UNIVERSITY OF SILESIA: MONIKA MUSIAL, STANISLAW KUCHARSKI
     FACULTES UNIVERSITAIRES NOTRE-DAME DE LA PAIX:
          OLIVIER QUINET, BENOIT CHAMPAGNE
     UNIVERSITY OF CALIFORNIA - SANTA BARBARA: BERNARD KIRTMAN
     INSTITUTE FOR MOLECULAR SCIENCE: KAZUYA ISHIMURA AND SHIGERU NAGASE
     UNIVERSITY OF NOTRE DAME: DAN CHIPMAN
     KYUSHU UNIVERSITY:
          HARUYUKI NAKANO,
          FENG LONG GU, JACEK KORCHOWIEC, MARCIN MAKOWSKI, AND YURIKO AOKI,
          HIROTOSHI MORI AND EISAKU MIYOSHI
     PENNSYLVANIA STATE UNIVERSITY:
          TZVETELIN IORDANOV, CHET SWALINA, JONATHAN SKONE,
          SHARON HAMMES-SCHIFFER

 EXECUTION OF GAMESS BEGUN Sat Mar 28 15:10:44 2009

            ECHO OF THE FIRST FEW INPUT CARDS -
 INPUT CARD>!   File created by MacMolPlt 7.2.1                                             
 INPUT CARD> $CONTRL SCFTYP=UHF RUNTYP=OPTIMIZE MPLEVL=2 MAXIT=30 MULT=3 ISPHER=1 $END      
 INPUT CARD> $SYSTEM TIMLIM=525600 MEMORY=10477056 $END                                     
 INPUT CARD> $BASIS GBASIS=N311 NGAUSS=6 NDFUNC=3 NFFUNC=1 NPFUNC=3 POLAR=DUNNING           
 INPUT CARD>    DIFFSP=.TRUE. DIFFS=.TRUE. $END                                             
 INPUT CARD> $SCF DIRSCF=.TRUE. UHFNOS=.TRUE. $END                                          
 INPUT CARD> $STATPT OPTTOL=0.0001 NSTEP=30 $END                                            
 INPUT CARD> $DATA                                                                          
 INPUT CARD>O2                                                                              
 INPUT CARD>C1                                                                              
 INPUT CARD>O     8.0    -0.57946     0.00000     0.00000                                   
 INPUT CARD>O     8.0     0.57946     0.00000     0.00000                                   
 INPUT CARD> $END                                                                           
   10477056 WORDS OF MEMORY AVAILABLE

     BASIS OPTIONS
     -------------
     GBASIS=N311         IGAUSS=       6      POLAR=DUNNING 
     NDFUNC=       3     NFFUNC=       1     DIFFSP=       T
     NPFUNC=       3      DIFFS=       T
     SPLIT3=     4.00000000     1.00000000     0.25000000


     RUN TITLE
     ---------
 O2                                                                              

 THE POINT GROUP OF THE MOLECULE IS C1      
 THE ORDER OF THE PRINCIPAL AXIS IS     0

 ATOM      ATOMIC                      COORDINATES (BOHR)
           CHARGE         X                   Y                   Z
 O           8.0    -1.0950206208        0.0000000000        0.0000000000
 O           8.0     1.0950206208        0.0000000000        0.0000000000

          INTERNUCLEAR DISTANCES (ANGS.)
          ------------------------------

                1 O          2 O     

   1 O       0.0000000    1.1589200 *
   2 O       1.1589200 *  0.0000000  

  * ... LESS THAN  3.000


     ATOMIC BASIS SET
     ----------------
 THE CONTRACTED PRIMITIVE FUNCTIONS HAVE BEEN UNNORMALIZED
 THE CONTRACTED BASIS FUNCTIONS ARE NOW NORMALIZED TO UNITY

  SHELL TYPE  PRIMITIVE        EXPONENT          CONTRACTION COEFFICIENT(S)

 O         

      1   S       1          8588.5000000    0.001895150083
      1   S       2          1297.2300000    0.014385900631
      1   S       3           299.2960000    0.070732003103
      1   S       4            87.3771000    0.240001010530
      1   S       5            25.6789000    0.594797026097
      1   S       6             3.7400400    0.280802012320

      2   L       7            42.1175000    0.113889012440    0.036511397380
      2   L       8             9.6283700    0.920811100576    0.237152982984
      2   L       9             2.8533200   -0.003274470358    0.819701941186

      3   L      10             0.9056610    1.000000000000    1.000000000000

      4   L      11             0.2556110    1.000000000000    1.000000000000

      5   L      12             0.0845000    1.000000000000    1.000000000000

      6   D      13             3.4000000    1.000000000000

      7   D      14             0.8500000    1.000000000000

      8   D      15             0.2125000    1.000000000000

      9   F      16             1.4000000    1.000000000000

 O         

     10   S      17          8588.5000000    0.001895150083
     10   S      18          1297.2300000    0.014385900631
     10   S      19           299.2960000    0.070732003103
     10   S      20            87.3771000    0.240001010530
     10   S      21            25.6789000    0.594797026097
     10   S      22             3.7400400    0.280802012320

     11   L      23            42.1175000    0.113889012440    0.036511397380
     11   L      24             9.6283700    0.920811100576    0.237152982984
     11   L      25             2.8533200   -0.003274470358    0.819701941186

     12   L      26             0.9056610    1.000000000000    1.000000000000

     13   L      27             0.2556110    1.000000000000    1.000000000000

     14   L      28             0.0845000    1.000000000000    1.000000000000

     15   D      29             3.4000000    1.000000000000

     16   D      30             0.8500000    1.000000000000

     17   D      31             0.2125000    1.000000000000

     18   F      32             1.4000000    1.000000000000

 TOTAL NUMBER OF BASIS SET SHELLS             =   18
 NUMBER OF CARTESIAN GAUSSIAN BASIS FUNCTIONS =   90
 NOTE: THIS RUN WILL RESTRICT THE MO VARIATION SPACE TO SPHERICAL HARMONICS.
 THE NUMBER OF ORBITALS KEPT IN THE VARIATIONAL SPACE WILL BE PRINTED LATER.
 NUMBER OF ELECTRONS                          =   16
 CHARGE OF MOLECULE                           =    0
 SPIN MULTIPLICITY                            =    3
 NUMBER OF OCCUPIED ORBITALS (ALPHA)          =    9
 NUMBER OF OCCUPIED ORBITALS (BETA )          =    7
 TOTAL NUMBER OF ATOMS                        =    2
 THE NUCLEAR REPULSION ENERGY IS       29.2231939662

 THIS MOLECULE IS RECOGNIZED AS BEING LINEAR.

     $CONTRL OPTIONS
     ---------------
 SCFTYP=UHF          RUNTYP=OPTIMIZE     EXETYP=RUN     
 MPLEVL=       2     CITYP =NONE         CCTYP =NONE         VBTYP =NONE    
 DFTTYP=NONE         TDDFT =NONE    
 MULT  =       3     ICHARG=       0     NZVAR =       0     COORD =UNIQUE  
 PP    =NONE         RELWFN=NONE         LOCAL =NONE         NUMGRD=       F
 ISPHER=       1     NOSYM =       0     MAXIT =      30     UNITS =ANGS    
 PLTORB=       F     MOLPLT=       F     AIMPAC=       F     FRIEND=        
 NPRINT=       7     IREST =       0     GEOM  =INPUT   
 NORMF =       0     NORMP =       0     ITOL  =      20     ICUT  =       9
 INTTYP=BEST         GRDTYP=BEST         QMTTOL= 1.0E-06

     $SYSTEM OPTIONS
     ---------------
  REPLICATED MEMORY=    10477056 WORDS (ON EVERY NODE).
 DISTRIBUTED MEMDDI=           0 MILLION WORDS IN AGGREGATE,
 MEMDDI DISTRIBUTED OVER   1 PROCESSORS IS           0 WORDS/PROCESSOR.
 TOTAL MEMORY REQUESTED ON EACH PROCESSOR=    10477056 WORDS.
 TIMLIM=      525600.00 MINUTES, OR   365.00 DAYS.
 PARALL= F  BALTYP=  NXTVAL  KDIAG=    0  COREFL= F

          ----------------
          PROPERTIES INPUT
          ----------------

     MOMENTS            FIELD           POTENTIAL          DENSITY
 IEMOM =       1   IEFLD =       0   IEPOT =       0   IEDEN =       0
 WHERE =COMASS     WHERE =NUCLEI     WHERE =NUCLEI     WHERE =NUCLEI  
 OUTPUT=BOTH       OUTPUT=BOTH       OUTPUT=BOTH       OUTPUT=BOTH    
 IEMINT=       0   IEFINT=       0                     IEDINT=       0
                                                       MORB  =       0
          EXTRAPOLATION IN EFFECT
          DIIS IN EFFECT
 ORBITAL PRINTING OPTION: NPREO=   1  90   2   1

     -------------------------------
     INTEGRAL TRANSFORMATION OPTIONS
     -------------------------------
     NWORD  =         0     CUTOFF = 1.0E-09
     MPTRAN =         0     DIRTRF =       T
     AOINTS =DUP     

          ----------------------
          INTEGRAL INPUT OPTIONS
          ----------------------
 NOPK  =       1 NORDER=       0 SCHWRZ=       T

          -----------------------
          MP2 CONTROL INFORMATION
          -----------------------
          NACORE =        2  NBCORE =        2
          LMOMP2 =        F  AOINTS = DUP     
          METHOD =        2  NWORD  =               0
          MP2PRP =        F  OSPT   = UMP     
          CUTOFF = 1.00E-09  CPHFBS = BASISAO 
          CODE   = SERIAL  

          NUMBER OF CORE -A-  ORBITALS =     2
          NUMBER OF CORE -B-  ORBITALS =     2
          NUMBER OF OCC. -A-  ORBITALS =     9
          NUMBER OF OCC. -B-  ORBITALS =     7
          NUMBER OF MOLECULAR ORBITALS =    90
          NUMBER OF   BASIS  FUNCTIONS =    90


     ------------------------------------------
     THE POINT GROUP IS C1 , NAXIS= 0, ORDER= 1
     ------------------------------------------

 -- VARIATIONAL SPACE WILL BE RESTRICTED TO PURE SPHERICAL HARMONICS ONLY --
 AFTER EXCLUDING CONTAMINANT COMBINATIONS FROM THE CARTESIAN GAUSSIAN BASIS
 SET, THE NUMBER OF SPHERICAL HARMONICS KEPT IN THE VARIATION SPACE IS   78

     DIMENSIONS OF THE SYMMETRY SUBSPACES ARE
 A   =   78

 ..... DONE SETTING UP THE RUN .....
 STEP CPU TIME =     0.10 TOTAL CPU TIME =        0.1 (    0.0 MIN)
 TOTAL WALL CLOCK TIME=        0.0 SECONDS, CPU UTILIZATION IS 100.00%


          -----------------------------
          STATIONARY POINT LOCATION RUN
          -----------------------------

 OBTAINING INITIAL HESSIAN, HESS=GUESS   
 CARTESIAN COORDINATE OPTIMIZATION USING BADGER'S RULE FORCE CONSTANT GUESS

          PARAMETERS CONTROLLING GEOMETRY SEARCH ARE
          METHOD =QA                  UPHESS =BFGS    
          NNEG   =         0          NFRZ   =         0
          NSTEP  =        30          IFOLOW =         1
          HESS   =GUESS               RESTAR =         F
          IHREP  =         0          HSSEND =         F
          NPRT   =         0          NPUN   =         0
          OPTTOL = 1.000E-04          RMIN   = 1.500E-03
          RMAX   = 1.000E-01          RLIM   = 7.000E-02
          DXMAX  = 3.000E-01          PURIFY =         F
          MOVIE  =         F          TRUPD  =         T
          TRMAX  = 5.000E-01          TRMIN  = 5.000E-02
          ITBMAT =         5          STPT   =         F
          STSTEP = 1.000E-02          PROJCT=          T

 BEGINNING GEOMETRY SEARCH POINT NSERCH=   0 ...

 COORDINATES OF ALL ATOMS ARE (ANGS)
   ATOM   CHARGE       X              Y              Z
 ------------------------------------------------------------
 O           8.0  -0.5794600000   0.0000000000   0.0000000000
 O           8.0   0.5794600000   0.0000000000   0.0000000000

          ********************
          1 ELECTRON INTEGRALS
          ********************
 ...... END OF ONE-ELECTRON INTEGRALS ......
 STEP CPU TIME =     0.02 TOTAL CPU TIME =        0.1 (    0.0 MIN)
 TOTAL WALL CLOCK TIME=        0.0 SECONDS, CPU UTILIZATION IS 100.00%

          -------------
          GUESS OPTIONS
          -------------
          GUESS =HUCKEL            NORB  =       0          NORDER=       0
          MIX   =       F          PRTMO =       F          PUNMO =       F
          TOLZ  = 1.0E-08          TOLE  = 1.0E-05
          SYMDEN=       F          PURIFY=       F

 INITIAL GUESS ORBITALS GENERATED BY HUCKEL   ROUTINE.
 HUCKEL GUESS REQUIRES     60512 WORDS.

 STATISTICS FOR GENERATION OF SYMMETRY ORBITAL -Q- MATRIX
 NUMBER OF CARTESIAN ATOMIC ORBITALS=         90
 NUMBER OF SPHERICAL CONTAMINANTS DROPPED=    12
 NUMBER OF LINEARLY DEPENDENT MOS DROPPED=     0
 TOTAL NUMBER OF MOS IN VARIATION SPACE=      78

 SYMMETRIES FOR INITIAL GUESS ORBITALS FOLLOW.  ALPHA SET(S).
     9 ORBITALS ARE OCCUPIED (    2 CORE ORBITALS).
     3=A        4=A        5=A        6=A        7=A        8=A        9=A   
    10=A       11=A       12=A       13=A       14=A       15=A       16=A   
    17=A       18=A       19=A   

 SYMMETRIES FOR INITIAL GUESS ORBITALS FOLLOW.   BETA SET(S).
     7 ORBITALS ARE OCCUPIED (    2 CORE ORBITALS).
     3=A        4=A        5=A        6=A        7=A        8=A        9=A   
    10=A       11=A       12=A       13=A       14=A       15=A       16=A   
    17=A   
 ...... END OF INITIAL ORBITAL SELECTION ......
 STEP CPU TIME =     0.24 TOTAL CPU TIME =        0.4 (    0.0 MIN)
 TOTAL WALL CLOCK TIME=        2.0 SECONDS, CPU UTILIZATION IS  18.00%

                    ----------------------
                    AO INTEGRAL TECHNOLOGY
                    ----------------------
     S,P,L SHELL ROTATED AXIS INTEGRALS, REPROGRAMMED BY
        KAZUYA ISHIMURA (IMS) AND JOSE SIERRA (SYNSTAR).
     S,P,D,L SHELL ROTATED AXIS INTEGRALS PROGRAMMED BY
        KAZUYA ISHIMURA (INSTITUTE FOR MOLECULAR SCIENCE).
     S,P,D,F,G SHELL TO TOTAL QUARTET ANGULAR MOMENTUM SUM 5,
        ERIC PROGRAM BY GRAHAM FLETCHER (ELORET AND NASA ADVANCED
        SUPERCOMPUTING DIVISION, AMES RESEARCH CENTER).
     S,P,D,F,G,L SHELL GENERAL RYS QUADRATURE PROGRAMMED BY
        MICHEL DUPUIS (PACIFIC NORTHWEST NATIONAL LABORATORY).

          --------------------
          2 ELECTRON INTEGRALS
          --------------------

 DIRECT SCF METHOD SKIPS INTEGRAL STORAGE ON DISK.
 DIRECT TRANSFORMATION SKIPS AO INTEGRAL STORAGE ON DISK.
  ...... END OF TWO-ELECTRON INTEGRALS .....
 STEP CPU TIME =     0.34 TOTAL CPU TIME =        0.7 (    0.0 MIN)
 TOTAL WALL CLOCK TIME=        2.0 SECONDS, CPU UTILIZATION IS  35.00%

          ---------------------------
                  UHF SCF CALCULATION
          ---------------------------

     NUCLEAR ENERGY =        29.2231939662
     MAXIT = 30     NPUNCH=  2     MULT=  3
     EXTRAP=T  DAMP=F  SHIFT=F  RSTRCT=F  DIIS=T  SOSCF=F
     DENSITY MATRIX CONV=  2.00E-06
     MEMORY REQUIRED FOR UHF/ROHF ITERS=    137547 WORDS.

 DIRECT SCF CALCULATION, SCHWRZ=T   FDIFF=T
 SCHWARZ INEQUALITY OVERHEAD:      4095 INTEGRALS, T=        0.04

                                                                                NONZERO     BLOCKS
 ITER EX      TOTAL ENERGY        E CHANGE  DENSITY CHANGE    DIIS ERROR      INTEGRALS    SKIPPED
   1  0     -149.2019333321  -149.2019333321   0.479454193   1.177237273        2058915          0
          * * *   INITIATING DIIS PROCEDURE   * * *
   2  1     -149.6562719549    -0.4543386229   0.070678139   0.097012807        2058914          1
   3  2     -149.6747085211    -0.0184365662   0.027437134   0.025678463        2058906          5
   4  3     -149.6764996835    -0.0017911624   0.011190144   0.008705209        2058906          5
   5  4     -149.6767620564    -0.0002623728   0.002544333   0.001708211        2058870         10
   6  5     -149.6767794473    -0.0000173909   0.000832084   0.000592132        2058783         24
   7  6     -149.6767816412    -0.0000021938   0.000188857   0.000112903        2058394         53
   8  7     -149.6767817250    -0.0000000838   0.000016347   0.000020815        2057670        122
   9  8     -149.6767817260    -0.0000000010   0.000006190   0.000004793        2053322        263
  10  9     -149.6767817260    -0.0000000001   0.000000940   0.000000941        2042625        496
  11 10     -149.6767817260     0.0000000000   0.000000134   0.000000131        2023573        783

          -----------------
          DENSITY CONVERGED
          -----------------

 FINAL UHF ENERGY IS     -149.6767817260 AFTER  11 ITERATIONS

          --------------------
          SPIN SZ   =    1.000
          S-SQUARED =    2.043
          --------------------

  ----- ALPHA SET ----- 

          ------------
          EIGENVECTORS
          ------------

                      1          2          3          4          5
                  -20.7495   -20.7487    -1.7612    -1.1910    -0.8636
                     A          A          A          A          A   
    1  O  1  S    0.389541  -0.389589  -0.086086  -0.089598   0.000000
    2  O  1  S    0.333468  -0.333536  -0.143500  -0.151253   0.000000
    3  O  1  X    0.001463  -0.001372   0.068381  -0.067768   0.000000
    4  O  1  Y    0.000000   0.000000   0.000000   0.000000   0.214388
    5  O  1  Z    0.000000   0.000000   0.000000   0.000000   0.036900
    6  O  1  S    0.005251  -0.005549   0.422156   0.455022   0.000000
    7  O  1  X   -0.000301   0.001014   0.109520  -0.094441   0.000000
    8  O  1  Y    0.000000   0.000000   0.000000   0.000000   0.336151
    9  O  1  Z    0.000000   0.000000   0.000000   0.000000   0.057857
   10  O  1  S   -0.000763   0.008540   0.211141   0.563631   0.000000
   11  O  1  X    0.000089   0.004593   0.031656   0.063431   0.000000
   12  O  1  Y    0.000000   0.000000   0.000000   0.000000   0.210729
   13  O  1  Z    0.000000   0.000000   0.000000   0.000000   0.036270
   14  O  1  S    0.000280   0.005166  -0.011845   0.036646   0.000000
   15  O  1  X   -0.000045   0.001663  -0.004506   0.010087   0.000000
   16  O  1  Y    0.000000   0.000000   0.000000   0.000000  -0.001336
   17  O  1  Z    0.000000   0.000000   0.000000   0.000000  -0.000230
   18  O  1 XX   -0.000291   0.000341   0.004223  -0.006432   0.000000
   19  O  1 YY    0.000145  -0.000171  -0.002112   0.003216   0.000000
   20  O  1 ZZ    0.000145  -0.000171  -0.002112   0.003216   0.000000
   21  O  1 XY    0.000000   0.000000   0.000000   0.000000   0.005097
   22  O  1 XZ    0.000000   0.000000   0.000000   0.000000   0.000877
   23  O  1 YZ    0.000000   0.000000   0.000000   0.000000   0.000000
   24  O  1 XX   -0.000106   0.000639   0.016435  -0.011310   0.000000
   25  O  1 YY    0.000053  -0.000320  -0.008217   0.005655   0.000000
   26  O  1 ZZ    0.000053  -0.000320  -0.008217   0.005655   0.000000
   27  O  1 XY    0.000000   0.000000   0.000000   0.000000   0.023553
   28  O  1 XZ    0.000000   0.000000   0.000000   0.000000   0.004054
   29  O  1 YZ    0.000000   0.000000   0.000000   0.000000   0.000000
   30  O  1 XX   -0.000090   0.001250   0.006904   0.021878   0.000000
   31  O  1 YY    0.000045  -0.000625  -0.003452  -0.010939   0.000000
   32  O  1 ZZ    0.000045  -0.000625  -0.003452  -0.010939   0.000000
   33  O  1 XY    0.000000   0.000000   0.000000   0.000000  -0.000401
   34  O  1 XZ    0.000000   0.000000   0.000000   0.000000  -0.000069
   35  O  1 YZ    0.000000   0.000000   0.000000   0.000000   0.000000
   36  O  1 XXX   0.000061   0.000038   0.005557   0.002384   0.000000
   37  O  1 YYY   0.000000   0.000000   0.000000   0.000000  -0.002714
   38  O  1 ZZZ   0.000000   0.000000   0.000000   0.000000  -0.000467
   39  O  1 XXY   0.000000   0.000000   0.000000   0.000000   0.004855
   40  O  1 XXZ   0.000000   0.000000   0.000000   0.000000   0.000836
   41  O  1 YYX  -0.000041  -0.000026  -0.003728  -0.001599   0.000000
   42  O  1 YYZ   0.000000   0.000000   0.000000   0.000000  -0.000209
   43  O  1 ZZX  -0.000041  -0.000026  -0.003728  -0.001599   0.000000
   44  O  1 ZZY   0.000000   0.000000   0.000000   0.000000  -0.001214
   45  O  1 XYZ   0.000000   0.000000   0.000000   0.000000   0.000000
   46  O  2  S    0.389541   0.389589  -0.086086   0.089598   0.000000
   47  O  2  S    0.333468   0.333536  -0.143500   0.151253   0.000000
   48  O  2  X   -0.001463  -0.001372  -0.068381  -0.067768   0.000000
   49  O  2  Y    0.000000   0.000000   0.000000   0.000000   0.214388
   50  O  2  Z    0.000000   0.000000   0.000000   0.000000   0.036900
   51  O  2  S    0.005251   0.005549   0.422156  -0.455022   0.000000
   52  O  2  X    0.000301   0.001014  -0.109520  -0.094441   0.000000
   53  O  2  Y    0.000000   0.000000   0.000000   0.000000   0.336151
   54  O  2  Z    0.000000   0.000000   0.000000   0.000000   0.057857
   55  O  2  S   -0.000763  -0.008540   0.211141  -0.563631   0.000000
   56  O  2  X   -0.000089   0.004593  -0.031656   0.063431   0.000000
   57  O  2  Y    0.000000   0.000000   0.000000   0.000000   0.210729
   58  O  2  Z    0.000000   0.000000   0.000000   0.000000   0.036270
   59  O  2  S    0.000280  -0.005166  -0.011845  -0.036646   0.000000
   60  O  2  X    0.000045   0.001663   0.004506   0.010087   0.000000
   61  O  2  Y    0.000000   0.000000   0.000000   0.000000  -0.001336
   62  O  2  Z    0.000000   0.000000   0.000000   0.000000  -0.000230
   63  O  2 XX   -0.000291  -0.000341   0.004223   0.006432   0.000000
   64  O  2 YY    0.000145   0.000171  -0.002112  -0.003216   0.000000
   65  O  2 ZZ    0.000145   0.000171  -0.002112  -0.003216   0.000000
   66  O  2 XY    0.000000   0.000000   0.000000   0.000000  -0.005097
   67  O  2 XZ    0.000000   0.000000   0.000000   0.000000  -0.000877
   68  O  2 YZ    0.000000   0.000000   0.000000   0.000000   0.000000
   69  O  2 XX   -0.000106  -0.000639   0.016435   0.011310   0.000000
   70  O  2 YY    0.000053   0.000320  -0.008217  -0.005655   0.000000
   71  O  2 ZZ    0.000053   0.000320  -0.008217  -0.005655   0.000000
   72  O  2 XY    0.000000   0.000000   0.000000   0.000000  -0.023553
   73  O  2 XZ    0.000000   0.000000   0.000000   0.000000  -0.004054
   74  O  2 YZ    0.000000   0.000000   0.000000   0.000000   0.000000
   75  O  2 XX   -0.000090  -0.001250   0.006904  -0.021878   0.000000
   76  O  2 YY    0.000045   0.000625  -0.003452   0.010939   0.000000
   77  O  2 ZZ    0.000045   0.000625  -0.003452   0.010939   0.000000
   78  O  2 XY    0.000000   0.000000   0.000000   0.000000   0.000401
   79  O  2 XZ    0.000000   0.000000   0.000000   0.000000   0.000069
   80  O  2 YZ    0.000000   0.000000   0.000000   0.000000   0.000000
   81  O  2 XXX  -0.000061   0.000038  -0.005557   0.002384   0.000000
   82  O  2 YYY   0.000000   0.000000   0.000000   0.000000  -0.002714
   83  O  2 ZZZ   0.000000   0.000000   0.000000   0.000000  -0.000467
   84  O  2 XXY   0.000000   0.000000   0.000000   0.000000   0.004855
   85  O  2 XXZ   0.000000   0.000000   0.000000   0.000000   0.000836
   86  O  2 YYX   0.000041  -0.000026   0.003728  -0.001599   0.000000
   87  O  2 YYZ   0.000000   0.000000   0.000000   0.000000  -0.000209
   88  O  2 ZZX   0.000041  -0.000026   0.003728  -0.001599   0.000000
   89  O  2 ZZY   0.000000   0.000000   0.000000   0.000000  -0.001214
   90  O  2 XYZ   0.000000   0.000000   0.000000   0.000000   0.000000

                      6          7          8          9         10
                   -0.8636    -0.7843    -0.5392    -0.5392     0.1682
                     A          A          A          A          A   
    1  O  1  S    0.000000   0.027137   0.000000   0.000000   0.018999
    2  O  1  S    0.000000   0.046691   0.000000   0.000000   0.031791
    3  O  1  X    0.000000   0.211329   0.000000   0.000000  -0.009709
    4  O  1  Y   -0.036900   0.000000  -0.007523  -0.248378   0.000000
    5  O  1  Z    0.214388   0.000000  -0.248378   0.007523   0.000000
    6  O  1  S    0.000000  -0.148592   0.000000   0.000000  -0.069165
    7  O  1  X    0.000000   0.325984   0.000000   0.000000  -0.036017
    8  O  1  Y   -0.057857   0.000000  -0.011543  -0.381112   0.000000
    9  O  1  Z    0.336151   0.000000  -0.381112   0.011543   0.000000
   10  O  1  S    0.000000  -0.237468   0.000000   0.000000  -0.948479
   11  O  1  X    0.000000   0.214007   0.000000   0.000000  -0.487123
   12  O  1  Y   -0.036270   0.000000  -0.011610  -0.383309   0.000000
   13  O  1  Z    0.210729   0.000000  -0.383309   0.011610   0.000000
   14  O  1  S    0.000000  -0.010707   0.000000   0.000000 -11.860611
   15  O  1  X    0.000000   0.014540   0.000000   0.000000  -4.618147
   16  O  1  Y    0.000230   0.000000  -0.001760  -0.058108   0.000000
   17  O  1  Z   -0.001336   0.000000  -0.058108   0.001760   0.000000
   18  O  1 XX    0.000000   0.008827   0.000000   0.000000   0.002040
   19  O  1 YY    0.000000  -0.004413   0.000000   0.000000  -0.001020
   20  O  1 ZZ    0.000000  -0.004413   0.000000   0.000000  -0.001020
   21  O  1 XY   -0.000877   0.000000   0.000047   0.001545   0.000000
   22  O  1 XZ    0.005097   0.000000   0.001545  -0.000047   0.000000
   23  O  1 YZ    0.000000   0.000000   0.000000   0.000000   0.000000
   24  O  1 XX    0.000000   0.032552   0.000000   0.000000   0.007698
   25  O  1 YY    0.000000  -0.016276   0.000000   0.000000  -0.003849
   26  O  1 ZZ    0.000000  -0.016276   0.000000   0.000000  -0.003849
   27  O  1 XY   -0.004054   0.000000   0.000345   0.011383   0.000000
   28  O  1 XZ    0.023553   0.000000   0.011383  -0.000345   0.000000
   29  O  1 YZ    0.000000   0.000000   0.000000   0.000000   0.000000
   30  O  1 XX    0.000000   0.028840   0.000000   0.000000  -0.288370
   31  O  1 YY    0.000000  -0.014420   0.000000   0.000000   0.144185
   32  O  1 ZZ    0.000000  -0.014420   0.000000   0.000000   0.144185
   33  O  1 XY    0.000069   0.000000  -0.000925  -0.030545   0.000000
   34  O  1 XZ   -0.000401   0.000000  -0.030545   0.000925   0.000000
   35  O  1 YZ    0.000000   0.000000   0.000000   0.000000   0.000000
   36  O  1 XXX   0.000000   0.004145   0.000000   0.000000  -0.003192
   37  O  1 YYY   0.000467   0.000000  -0.000073  -0.002399   0.000000
   38  O  1 ZZZ  -0.002714   0.000000  -0.002399   0.000073   0.000000
   39  O  1 XXY  -0.000836   0.000000   0.000130   0.004291   0.000000
   40  O  1 XXZ   0.004855   0.000000   0.004291  -0.000130   0.000000
   41  O  1 YYX   0.000000  -0.002780   0.000000   0.000000   0.002141
   42  O  1 YYZ  -0.001214   0.000000  -0.001073   0.000032   0.000000
   43  O  1 ZZX   0.000000  -0.002780   0.000000   0.000000   0.002141
   44  O  1 ZZY   0.000209   0.000000  -0.000032  -0.001073   0.000000
   45  O  1 XYZ   0.000000   0.000000   0.000000   0.000000   0.000000
   46  O  2  S    0.000000   0.027137   0.000000   0.000000  -0.018999
   47  O  2  S    0.000000   0.046691   0.000000   0.000000  -0.031791
   48  O  2  X    0.000000  -0.211329   0.000000   0.000000  -0.009709
   49  O  2  Y   -0.036900   0.000000   0.007523   0.248378   0.000000
   50  O  2  Z    0.214388   0.000000   0.248378  -0.007523   0.000000
   51  O  2  S    0.000000  -0.148592   0.000000   0.000000   0.069165
   52  O  2  X    0.000000  -0.325984   0.000000   0.000000  -0.036017
   53  O  2  Y   -0.057857   0.000000   0.011543   0.381112   0.000000
   54  O  2  Z    0.336151   0.000000   0.381112  -0.011543   0.000000
   55  O  2  S    0.000000  -0.237468   0.000000   0.000000   0.948479
   56  O  2  X    0.000000  -0.214007   0.000000   0.000000  -0.487123
   57  O  2  Y   -0.036270   0.000000   0.011610   0.383309   0.000000
   58  O  2  Z    0.210729   0.000000   0.383309  -0.011610   0.000000
   59  O  2  S    0.000000  -0.010707   0.000000   0.000000  11.860611
   60  O  2  X    0.000000  -0.014540   0.000000   0.000000  -4.618147
   61  O  2  Y    0.000230   0.000000   0.001760   0.058108   0.000000
   62  O  2  Z   -0.001336   0.000000   0.058108  -0.001760   0.000000
   63  O  2 XX    0.000000   0.008827   0.000000   0.000000  -0.002040
   64  O  2 YY    0.000000  -0.004413   0.000000   0.000000   0.001020
   65  O  2 ZZ    0.000000  -0.004413   0.000000   0.000000   0.001020
   66  O  2 XY    0.000877   0.000000   0.000047   0.001545   0.000000
   67  O  2 XZ   -0.005097   0.000000   0.001545  -0.000047   0.000000
   68  O  2 YZ    0.000000   0.000000   0.000000   0.000000   0.000000
   69  O  2 XX    0.000000   0.032552   0.000000   0.000000  -0.007698
   70  O  2 YY    0.000000  -0.016276   0.000000   0.000000   0.003849
   71  O  2 ZZ    0.000000  -0.016276   0.000000   0.000000   0.003849
   72  O  2 XY    0.004054   0.000000   0.000345   0.011383   0.000000
   73  O  2 XZ   -0.023553   0.000000   0.011383  -0.000345   0.000000
   74  O  2 YZ    0.000000   0.000000   0.000000   0.000000   0.000000
   75  O  2 XX    0.000000   0.028840   0.000000   0.000000   0.288370
   76  O  2 YY    0.000000  -0.014420   0.000000   0.000000  -0.144185
   77  O  2 ZZ    0.000000  -0.014420   0.000000   0.000000  -0.144185
   78  O  2 XY   -0.000069   0.000000  -0.000925  -0.030545   0.000000
   79  O  2 XZ    0.000401   0.000000  -0.030545   0.000925   0.000000
   80  O  2 YZ    0.000000   0.000000   0.000000   0.000000   0.000000
   81  O  2 XXX   0.000000  -0.004145   0.000000   0.000000  -0.003192
   82  O  2 YYY   0.000467   0.000000   0.000073   0.002399   0.000000
   83  O  2 ZZZ  -0.002714   0.000000   0.002399  -0.000073   0.000000
   84  O  2 XXY  -0.000836   0.000000  -0.000130  -0.004291   0.000000
   85  O  2 XXZ   0.004855   0.000000  -0.004291   0.000130   0.000000
   86  O  2 YYX   0.000000   0.002780   0.000000   0.000000   0.002141
   87  O  2 YYZ  -0.001214   0.000000   0.001073  -0.000032   0.000000
   88  O  2 ZZX   0.000000   0.002780   0.000000   0.000000   0.002141
   89  O  2 ZZY   0.000209   0.000000   0.000032   0.001073   0.000000
   90  O  2 XYZ   0.000000   0.000000   0.000000   0.000000   0.000000

                     11         12         13         14         15
                    0.1793     0.2133     0.2133     0.2692     0.2707
                     A          A          A          A          A   
    1  O  1  S    0.020188   0.000000   0.000000   0.010650   0.000000
    2  O  1  S    0.033191   0.000000   0.000000   0.016787   0.000000
    3  O  1  X    0.046662   0.000000   0.000000  -0.013999   0.000000
    4  O  1  Y    0.000000  -0.021480  -0.061313   0.000000  -0.055700
    5  O  1  Z    0.000000  -0.061313   0.021480   0.000000  -0.007998
    6  O  1  S   -0.075854   0.000000   0.000000  -0.026236   0.000000
    7  O  1  X    0.034170   0.000000   0.000000  -0.022118   0.000000
    8  O  1  Y    0.000000  -0.015596  -0.044516   0.000000  -0.068825
    9  O  1  Z    0.000000  -0.044516   0.015596   0.000000  -0.009882
   10  O  1  S   -0.574179   0.000000   0.000000  -0.921739   0.000000
   11  O  1  X    0.223190   0.000000   0.000000  -0.038135   0.000000
   12  O  1  Y    0.000000  -0.103079  -0.294228   0.000000  -0.057543
   13  O  1  Z    0.000000  -0.294228   0.103079   0.000000  -0.008262
   14  O  1  S    0.925850   0.000000   0.000000   0.377570   0.000000
   15  O  1  X   -0.580364   0.000000   0.000000   1.643731   0.000000
   16  O  1  Y    0.000000   0.226365   0.646135   0.000000   2.183637
   17  O  1  Z    0.000000   0.646135  -0.226365   0.000000   0.313543
   18  O  1 XX   -0.000895   0.000000   0.000000  -0.000924   0.000000
   19  O  1 YY    0.000447   0.000000   0.000000   0.000462   0.000000
   20  O  1 ZZ    0.000447   0.000000   0.000000   0.000462   0.000000
   21  O  1 XY    0.000000  -0.000799  -0.002282   0.000000   0.002481
   22  O  1 XZ    0.000000  -0.002282   0.000799   0.000000   0.000356
   23  O  1 YZ    0.000000   0.000000   0.000000   0.000000   0.000000
   24  O  1 XX    0.008012   0.000000   0.000000  -0.032363   0.000000
   25  O  1 YY   -0.004006   0.000000   0.000000   0.016182   0.000000
   26  O  1 ZZ   -0.004006   0.000000   0.000000   0.016182   0.000000
   27  O  1 XY    0.000000  -0.002286  -0.006526   0.000000  -0.025297
   28  O  1 XZ    0.000000  -0.006526   0.002286   0.000000  -0.003632
   29  O  1 YZ    0.000000   0.000000   0.000000   0.000000   0.000000
   30  O  1 XX   -0.017793   0.000000   0.000000   0.331317   0.000000
   31  O  1 YY    0.008896   0.000000   0.000000  -0.165659   0.000000
   32  O  1 ZZ    0.008896   0.000000   0.000000  -0.165659   0.000000
   33  O  1 XY    0.000000  -0.001369  -0.003909   0.000000   0.336343
   34  O  1 XZ    0.000000  -0.003909   0.001369   0.000000   0.048295
   35  O  1 YZ    0.000000   0.000000   0.000000   0.000000   0.000000
   36  O  1 XXX   0.001289   0.000000   0.000000   0.000853   0.000000
   37  O  1 YYY   0.000000   0.000501   0.001429   0.000000   0.000017
   38  O  1 ZZZ   0.000000   0.001429  -0.000501   0.000000   0.000002
   39  O  1 XXY   0.000000  -0.000896  -0.002556   0.000000  -0.000030
   40  O  1 XXZ   0.000000  -0.002556   0.000896   0.000000  -0.000004
   41  O  1 YYX  -0.000865   0.000000   0.000000  -0.000572   0.000000
   42  O  1 YYZ   0.000000   0.000639  -0.000224   0.000000   0.000001
   43  O  1 ZZX  -0.000865   0.000000   0.000000  -0.000572   0.000000
   44  O  1 ZZY   0.000000   0.000224   0.000639   0.000000   0.000007
   45  O  1 XYZ   0.000000   0.000000   0.000000   0.000000   0.000000
   46  O  2  S    0.020188   0.000000   0.000000   0.010650   0.000000
   47  O  2  S    0.033191   0.000000   0.000000   0.016787   0.000000
   48  O  2  X   -0.046662   0.000000   0.000000   0.013999   0.000000
   49  O  2  Y    0.000000  -0.021480  -0.061313   0.000000   0.055700
   50  O  2  Z    0.000000  -0.061313   0.021480   0.000000   0.007998
   51  O  2  S   -0.075854   0.000000   0.000000  -0.026236   0.000000
   52  O  2  X   -0.034170   0.000000   0.000000   0.022118   0.000000
   53  O  2  Y    0.000000  -0.015596  -0.044516   0.000000   0.068825
   54  O  2  Z    0.000000  -0.044516   0.015596   0.000000   0.009882
   55  O  2  S   -0.574179   0.000000   0.000000  -0.921739   0.000000
   56  O  2  X   -0.223190   0.000000   0.000000   0.038135   0.000000
   57  O  2  Y    0.000000  -0.103079  -0.294228   0.000000   0.057543
   58  O  2  Z    0.000000  -0.294228   0.103079   0.000000   0.008262
   59  O  2  S    0.925850   0.000000   0.000000   0.377570   0.000000
   60  O  2  X    0.580364   0.000000   0.000000  -1.643731   0.000000
   61  O  2  Y    0.000000   0.226365   0.646135   0.000000  -2.183637
   62  O  2  Z    0.000000   0.646135  -0.226365   0.000000  -0.313543
   63  O  2 XX   -0.000895   0.000000   0.000000  -0.000924   0.000000
   64  O  2 YY    0.000447   0.000000   0.000000   0.000462   0.000000
   65  O  2 ZZ    0.000447   0.000000   0.000000   0.000462   0.000000
   66  O  2 XY    0.000000   0.000799   0.002282   0.000000   0.002481
   67  O  2 XZ    0.000000   0.002282  -0.000799   0.000000   0.000356
   68  O  2 YZ    0.000000   0.000000   0.000000   0.000000   0.000000
   69  O  2 XX    0.008012   0.000000   0.000000  -0.032363   0.000000
   70  O  2 YY   -0.004006   0.000000   0.000000   0.016182   0.000000
   71  O  2 ZZ   -0.004006   0.000000   0.000000   0.016182   0.000000
   72  O  2 XY    0.000000   0.002286   0.006526   0.000000  -0.025297
   73  O  2 XZ    0.000000   0.006526  -0.002286   0.000000  -0.003632
   74  O  2 YZ    0.000000   0.000000   0.000000   0.000000   0.000000
   75  O  2 XX   -0.017793   0.000000   0.000000   0.331317   0.000000
   76  O  2 YY    0.008896   0.000000   0.000000  -0.165659   0.000000
   77  O  2 ZZ    0.008896   0.000000   0.000000  -0.165659   0.000000
   78  O  2 XY    0.000000   0.001369   0.003909   0.000000   0.336343
   79  O  2 XZ    0.000000   0.003909  -0.001369   0.000000   0.048295
   80  O  2 YZ    0.000000   0.000000   0.000000   0.000000   0.000000
   81  O  2 XXX  -0.001289   0.000000   0.000000  -0.000853   0.000000
   82  O  2 YYY   0.000000   0.000501   0.001429   0.000000  -0.000017
   83  O  2 ZZZ   0.000000   0.001429  -0.000501   0.000000  -0.000002
   84  O  2 XXY   0.000000  -0.000896  -0.002556   0.000000   0.000030
   85  O  2 XXZ   0.000000  -0.002556   0.000896   0.000000   0.000004
   86  O  2 YYX   0.000865   0.000000   0.000000   0.000572   0.000000
   87  O  2 YYZ   0.000000   0.000639  -0.000224   0.000000  -0.000001
   88  O  2 ZZX   0.000865   0.000000   0.000000   0.000572   0.000000
   89  O  2 ZZY   0.000000   0.000224   0.000639   0.000000  -0.000007
   90  O  2 XYZ   0.000000   0.000000   0.000000   0.000000   0.000000

                     16         17         18         19         20
                    0.2707     0.3810     0.5465     0.5748     0.5748
                     A          A          A          A          A   
    1  O  1  S    0.000000  -0.020609   0.039637   0.000000   0.000000
    2  O  1  S    0.000000  -0.037611   0.071536   0.000000   0.000000
    3  O  1  X    0.000000   0.003490  -0.217670   0.000000   0.000000
    4  O  1  Y   -0.007998   0.000000   0.000000   0.000000   0.000000
    5  O  1  Z    0.055700   0.000000   0.000000   0.000000   0.000000
    6  O  1  S    0.000000   0.238622  -0.272496   0.000000   0.000000
    7  O  1  X    0.000000   0.014449  -0.320519   0.000000   0.000000
    8  O  1  Y   -0.009882   0.000000   0.000000   0.000000   0.000000
    9  O  1  Z    0.068825   0.000000   0.000000   0.000000   0.000000
   10  O  1  S    0.000000  -2.415305  -0.388249   0.000000   0.000000
   11  O  1  X    0.000000  -2.515908  -0.776276   0.000000   0.000000
   12  O  1  Y   -0.008262   0.000000   0.000000   0.000000   0.000000
   13  O  1  Z    0.057543   0.000000   0.000000   0.000000   0.000000
   14  O  1  S    0.000000 -30.648922   2.095639   0.000000   0.000000
   15  O  1  X    0.000000  -9.705157   1.013268   0.000000   0.000000
   16  O  1  Y    0.313543   0.000000   0.000000   0.000000   0.000000
   17  O  1  Z   -2.183637   0.000000   0.000000   0.000000   0.000000
   18  O  1 XX    0.000000   0.004606   0.013402   0.000000   0.000000
   19  O  1 YY    0.000000  -0.002303  -0.006701  -0.011287  -0.007023
   20  O  1 ZZ    0.000000  -0.002303  -0.006701   0.011287   0.007023
   21  O  1 XY    0.000356   0.000000   0.000000   0.000000   0.000000
   22  O  1 XZ   -0.002481   0.000000   0.000000   0.000000   0.000000
   23  O  1 YZ    0.000000   0.000000   0.000000  -0.008110   0.013034
   24  O  1 XX    0.000000  -0.086861   0.039832   0.000000   0.000000
   25  O  1 YY    0.000000   0.043431  -0.019916   0.002738   0.001703
   26  O  1 ZZ    0.000000   0.043431  -0.019916  -0.002738  -0.001703
   27  O  1 XY   -0.003632   0.000000   0.000000   0.000000   0.000000
   28  O  1 XZ    0.025297   0.000000   0.000000   0.000000   0.000000
   29  O  1 YZ    0.000000   0.000000   0.000000   0.001967  -0.003161
   30  O  1 XX    0.000000  -0.915477   0.315498   0.000000   0.000000
   31  O  1 YY    0.000000   0.457739  -0.157749  -0.411210  -0.255862
   32  O  1 ZZ    0.000000   0.457739  -0.157749   0.411210   0.255862
   33  O  1 XY    0.048295   0.000000   0.000000   0.000000   0.000000
   34  O  1 XZ   -0.336343   0.000000   0.000000   0.000000   0.000000
   35  O  1 YZ    0.000000   0.000000   0.000000  -0.295444   0.474825
   36  O  1 XXX   0.000000  -0.020077   0.005680   0.000000   0.000000
   37  O  1 YYY   0.000002   0.000000   0.000000   0.000000   0.000000
   38  O  1 ZZZ  -0.000017   0.000000   0.000000   0.000000   0.000000
   39  O  1 XXY  -0.000004   0.000000   0.000000   0.000000   0.000000
   40  O  1 XXZ   0.000030   0.000000   0.000000   0.000000   0.000000
   41  O  1 YYX   0.000000   0.013468  -0.003810  -0.002062  -0.001283
   42  O  1 YYZ  -0.000007   0.000000   0.000000   0.000000   0.000000
   43  O  1 ZZX   0.000000   0.013468  -0.003810   0.002062   0.001283
   44  O  1 ZZY   0.000001   0.000000   0.000000   0.000000   0.000000
   45  O  1 XYZ   0.000000   0.000000   0.000000  -0.001482   0.002381
   46  O  2  S    0.000000   0.020609  -0.039637   0.000000   0.000000
   47  O  2  S    0.000000   0.037611  -0.071536   0.000000   0.000000
   48  O  2  X    0.000000   0.003490  -0.217670   0.000000   0.000000
   49  O  2  Y    0.007998   0.000000   0.000000   0.000000   0.000000
   50  O  2  Z   -0.055700   0.000000   0.000000   0.000000   0.000000
   51  O  2  S    0.000000  -0.238622   0.272496   0.000000   0.000000
   52  O  2  X    0.000000   0.014449  -0.320519   0.000000   0.000000
   53  O  2  Y    0.009882   0.000000   0.000000   0.000000   0.000000
   54  O  2  Z   -0.068825   0.000000   0.000000   0.000000   0.000000
   55  O  2  S    0.000000   2.415305   0.388249   0.000000   0.000000
   56  O  2  X    0.000000  -2.515908  -0.776276   0.000000   0.000000
   57  O  2  Y    0.008262   0.000000   0.000000   0.000000   0.000000
   58  O  2  Z   -0.057543   0.000000   0.000000   0.000000   0.000000
   59  O  2  S    0.000000  30.648922  -2.095639   0.000000   0.000000
   60  O  2  X    0.000000  -9.705157   1.013268   0.000000   0.000000
   61  O  2  Y   -0.313543   0.000000   0.000000   0.000000   0.000000
   62  O  2  Z    2.183637   0.000000   0.000000   0.000000   0.000000
   63  O  2 XX    0.000000  -0.004606  -0.013402   0.000000   0.000000
   64  O  2 YY    0.000000   0.002303   0.006701  -0.011287  -0.007023
   65  O  2 ZZ    0.000000   0.002303   0.006701   0.011287   0.007023
   66  O  2 XY    0.000356   0.000000   0.000000   0.000000   0.000000
   67  O  2 XZ   -0.002481   0.000000   0.000000   0.000000   0.000000
   68  O  2 YZ    0.000000   0.000000   0.000000  -0.008110   0.013034
   69  O  2 XX    0.000000   0.086861  -0.039832   0.000000   0.000000
   70  O  2 YY    0.000000  -0.043431   0.019916   0.002738   0.001703
   71  O  2 ZZ    0.000000  -0.043431   0.019916  -0.002738  -0.001703
   72  O  2 XY   -0.003632   0.000000   0.000000   0.000000   0.000000
   73  O  2 XZ    0.025297   0.000000   0.000000   0.000000   0.000000
   74  O  2 YZ    0.000000   0.000000   0.000000   0.001967  -0.003161
   75  O  2 XX    0.000000   0.915477  -0.315498   0.000000   0.000000
   76  O  2 YY    0.000000  -0.457739   0.157749  -0.411210  -0.255862
   77  O  2 ZZ    0.000000  -0.457739   0.157749   0.411210   0.255862
   78  O  2 XY    0.048295   0.000000   0.000000   0.000000   0.000000
   79  O  2 XZ   -0.336343   0.000000   0.000000   0.000000   0.000000
   80  O  2 YZ    0.000000   0.000000   0.000000  -0.295444   0.474825
   81  O  2 XXX   0.000000  -0.020077   0.005680   0.000000   0.000000
   82  O  2 YYY  -0.000002   0.000000   0.000000   0.000000   0.000000
   83  O  2 ZZZ   0.000017   0.000000   0.000000   0.000000   0.000000
   84  O  2 XXY   0.000004   0.000000   0.000000   0.000000   0.000000
   85  O  2 XXZ  -0.000030   0.000000   0.000000   0.000000   0.000000
   86  O  2 YYX   0.000000   0.013468  -0.003810   0.002062   0.001283
   87  O  2 YYZ   0.000007   0.000000   0.000000   0.000000   0.000000
   88  O  2 ZZX   0.000000   0.013468  -0.003810  -0.002062  -0.001283
   89  O  2 ZZY  -0.000001   0.000000   0.000000   0.000000   0.000000
   90  O  2 XYZ   0.000000   0.000000   0.000000   0.001482  -0.002381

                     21         22         23         24         25
                    0.7849     0.7849     0.7942     0.8105     0.8105
                     A          A          A          A          A   
    1  O  1  S    0.000000   0.000000   0.010601   0.000000   0.000000
    2  O  1  S    0.000000   0.000000   0.020411   0.000000   0.000000
    3  O  1  X    0.000000   0.000000  -0.057757   0.000000   0.000000
    4  O  1  Y   -0.005726  -0.016233   0.000000   0.000000   0.000000
    5  O  1  Z   -0.016233   0.005726   0.000000   0.000000   0.000000
    6  O  1  S    0.000000   0.000000  -0.114154   0.000000   0.000000
    7  O  1  X    0.000000   0.000000  -0.076690   0.000000   0.000000
    8  O  1  Y   -0.000699  -0.001983   0.000000   0.000000   0.000000
    9  O  1  Z   -0.001983   0.000699   0.000000   0.000000   0.000000
   10  O  1  S    0.000000   0.000000   1.876358   0.000000   0.000000
   11  O  1  X    0.000000   0.000000  -0.061577   0.000000   0.000000
   12  O  1  Y   -0.148235  -0.420214   0.000000   0.000000   0.000000
   13  O  1  Z   -0.420214   0.148235   0.000000   0.000000   0.000000
   14  O  1  S    0.000000   0.000000  -0.772131   0.000000   0.000000
   15  O  1  X    0.000000   0.000000  -1.689513   0.000000   0.000000
   16  O  1  Y    0.049666   0.140792   0.000000   0.000000   0.000000
   17  O  1  Z    0.140792  -0.049666   0.000000   0.000000   0.000000
   18  O  1 XX    0.000000   0.000000  -0.017238   0.000000   0.000000
   19  O  1 YY    0.000000   0.000000   0.008619  -0.013284  -0.000963
   20  O  1 ZZ    0.000000   0.000000   0.008619   0.013284   0.000963
   21  O  1 XY    0.005881   0.016670   0.000000   0.000000   0.000000
   22  O  1 XZ    0.016670  -0.005881   0.000000   0.000000   0.000000
   23  O  1 YZ    0.000000   0.000000   0.000000   0.001111  -0.015339
   24  O  1 XX    0.000000   0.000000  -0.006407   0.000000   0.000000
   25  O  1 YY    0.000000   0.000000   0.003204   0.022477   0.001629
   26  O  1 ZZ    0.000000   0.000000   0.003204  -0.022477  -0.001629
   27  O  1 XY   -0.002086  -0.005915   0.000000   0.000000   0.000000
   28  O  1 XZ   -0.005915   0.002086   0.000000   0.000000   0.000000
   29  O  1 YZ    0.000000   0.000000   0.000000  -0.001881   0.025955
   30  O  1 XX    0.000000   0.000000  -1.485658   0.000000   0.000000
   31  O  1 YY    0.000000   0.000000   0.742829  -0.979189  -0.070953
   32  O  1 ZZ    0.000000   0.000000   0.742829   0.979189   0.070953
   33  O  1 XY    0.275931   0.782204   0.000000   0.000000   0.000000
   34  O  1 XZ    0.782204  -0.275931   0.000000   0.000000   0.000000
   35  O  1 YZ    0.000000   0.000000   0.000000   0.081930  -1.130670
   36  O  1 XXX   0.000000   0.000000  -0.015649   0.000000   0.000000
   37  O  1 YYY  -0.001231  -0.003490   0.000000   0.000000   0.000000
   38  O  1 ZZZ  -0.003490   0.001231   0.000000   0.000000   0.000000
   39  O  1 XXY   0.002203   0.006244   0.000000   0.000000   0.000000
   40  O  1 XXZ   0.006244  -0.002203   0.000000   0.000000   0.000000
   41  O  1 YYX   0.000000   0.000000   0.010498  -0.000308  -0.000022
   42  O  1 YYZ  -0.001561   0.000551   0.000000   0.000000   0.000000
   43  O  1 ZZX   0.000000   0.000000   0.010498   0.000308   0.000022
   44  O  1 ZZY  -0.000551  -0.001561   0.000000   0.000000   0.000000
   45  O  1 XYZ   0.000000   0.000000   0.000000   0.000026  -0.000355
   46  O  2  S    0.000000   0.000000   0.010601   0.000000   0.000000
   47  O  2  S    0.000000   0.000000   0.020411   0.000000   0.000000
   48  O  2  X    0.000000   0.000000   0.057757   0.000000   0.000000
   49  O  2  Y   -0.005726  -0.016233   0.000000   0.000000   0.000000
   50  O  2  Z   -0.016233   0.005726   0.000000   0.000000   0.000000
   51  O  2  S    0.000000   0.000000  -0.114154   0.000000   0.000000
   52  O  2  X    0.000000   0.000000   0.076690   0.000000   0.000000
   53  O  2  Y   -0.000699  -0.001983   0.000000   0.000000   0.000000
   54  O  2  Z   -0.001983   0.000699   0.000000   0.000000   0.000000
   55  O  2  S    0.000000   0.000000   1.876358   0.000000   0.000000
   56  O  2  X    0.000000   0.000000   0.061577   0.000000   0.000000
   57  O  2  Y   -0.148235  -0.420214   0.000000   0.000000   0.000000
   58  O  2  Z   -0.420214   0.148235   0.000000   0.000000   0.000000
   59  O  2  S    0.000000   0.000000  -0.772131   0.000000   0.000000
   60  O  2  X    0.000000   0.000000   1.689513   0.000000   0.000000
   61  O  2  Y    0.049666   0.140792   0.000000   0.000000   0.000000
   62  O  2  Z    0.140792  -0.049666   0.000000   0.000000   0.000000
   63  O  2 XX    0.000000   0.000000  -0.017238   0.000000   0.000000
   64  O  2 YY    0.000000   0.000000   0.008619   0.013284   0.000963
   65  O  2 ZZ    0.000000   0.000000   0.008619  -0.013284  -0.000963
   66  O  2 XY   -0.005881  -0.016670   0.000000   0.000000   0.000000
   67  O  2 XZ   -0.016670   0.005881   0.000000   0.000000   0.000000
   68  O  2 YZ    0.000000   0.000000   0.000000  -0.001111   0.015339
   69  O  2 XX    0.000000   0.000000  -0.006407   0.000000   0.000000
   70  O  2 YY    0.000000   0.000000   0.003204  -0.022477  -0.001629
   71  O  2 ZZ    0.000000   0.000000   0.003204   0.022477   0.001629
   72  O  2 XY    0.002086   0.005915   0.000000   0.000000   0.000000
   73  O  2 XZ    0.005915  -0.002086   0.000000   0.000000   0.000000
   74  O  2 YZ    0.000000   0.000000   0.000000   0.001881  -0.025955
   75  O  2 XX    0.000000   0.000000  -1.485658   0.000000   0.000000
   76  O  2 YY    0.000000   0.000000   0.742829   0.979189   0.070953
   77  O  2 ZZ    0.000000   0.000000   0.742829  -0.979189  -0.070953
   78  O  2 XY   -0.275931  -0.782204   0.000000   0.000000   0.000000
   79  O  2 XZ   -0.782204   0.275931   0.000000   0.000000   0.000000
   80  O  2 YZ    0.000000   0.000000   0.000000  -0.081930   1.130670
   81  O  2 XXX   0.000000   0.000000   0.015649   0.000000   0.000000
   82  O  2 YYY  -0.001231  -0.003490   0.000000   0.000000   0.000000
   83  O  2 ZZZ  -0.003490   0.001231   0.000000   0.000000   0.000000
   84  O  2 XXY   0.002203   0.006244   0.000000   0.000000   0.000000
   85  O  2 XXZ   0.006244  -0.002203   0.000000   0.000000   0.000000
   86  O  2 YYX   0.000000   0.000000  -0.010498  -0.000308  -0.000022
   87  O  2 YYZ  -0.001561   0.000551   0.000000   0.000000   0.000000
   88  O  2 ZZX   0.000000   0.000000  -0.010498   0.000308   0.000022
   89  O  2 ZZY  -0.000551  -0.001561   0.000000   0.000000   0.000000
   90  O  2 XYZ   0.000000   0.000000   0.000000   0.000026  -0.000355

                     26         27         28         29         30
                    0.8837     0.8837     0.9713     1.1363     1.1363
                     A          A          A          A          A   
    1  O  1  S    0.000000   0.000000   0.032423   0.000000   0.000000
    2  O  1  S    0.000000   0.000000   0.051723   0.000000   0.000000
    3  O  1  X    0.000000   0.000000  -0.113716   0.000000   0.000000
    4  O  1  Y    0.107681  -0.004123   0.000000  -0.160409   0.036673
    5  O  1  Z    0.004123   0.107681   0.000000  -0.036673  -0.160409
    6  O  1  S    0.000000   0.000000   0.114843   0.000000   0.000000
    7  O  1  X    0.000000   0.000000  -0.255983   0.000000   0.000000
    8  O  1  Y    0.149523  -0.005725   0.000000  -0.586442   0.134072
    9  O  1  Z    0.005725   0.149523   0.000000  -0.134072  -0.586442
   10  O  1  S    0.000000   0.000000  -8.278094   0.000000   0.000000
   11  O  1  X    0.000000   0.000000  -5.708569   0.000000   0.000000
   12  O  1  Y    1.387667  -0.053132   0.000000   0.988963  -0.226096
   13  O  1  Z    0.053132   1.387667   0.000000   0.226096   0.988963
   14  O  1  S    0.000000   0.000000 -23.148064   0.000000   0.000000
   15  O  1  X    0.000000   0.000000  -7.270676   0.000000   0.000000
   16  O  1  Y    1.883145  -0.072103   0.000000  -0.426014   0.097395
   17  O  1  Z    0.072103   1.883145   0.000000  -0.097395  -0.426014
   18  O  1 XX    0.000000   0.000000   0.010087   0.000000   0.000000
   19  O  1 YY    0.000000   0.000000  -0.005044   0.000000   0.000000
   20  O  1 ZZ    0.000000   0.000000  -0.005044   0.000000   0.000000
   21  O  1 XY    0.012026  -0.000460   0.000000  -0.001403   0.000321
   22  O  1 XZ    0.000460   0.012026   0.000000  -0.000321  -0.001403
   23  O  1 YZ    0.000000   0.000000   0.000000   0.000000   0.000000
   24  O  1 XX    0.000000   0.000000  -0.126678   0.000000   0.000000
   25  O  1 YY    0.000000   0.000000   0.063339   0.000000   0.000000
   26  O  1 ZZ    0.000000   0.000000   0.063339   0.000000   0.000000
   27  O  1 XY   -0.037382   0.001431   0.000000  -0.049180   0.011243
   28  O  1 XZ   -0.001431  -0.037382   0.000000  -0.011243  -0.049180
   29  O  1 YZ    0.000000   0.000000   0.000000   0.000000   0.000000
   30  O  1 XX    0.000000   0.000000  -2.544868   0.000000   0.000000
   31  O  1 YY    0.000000   0.000000   1.272434   0.000000   0.000000
   32  O  1 ZZ    0.000000   0.000000   1.272434   0.000000   0.000000
   33  O  1 XY    2.038609  -0.078055   0.000000   0.006862  -0.001569
   34  O  1 XZ    0.078055   2.038609   0.000000   0.001569   0.006862
   35  O  1 YZ    0.000000   0.000000   0.000000   0.000000   0.000000
   36  O  1 XXX   0.000000   0.000000  -0.032605   0.000000   0.000000
   37  O  1 YYY  -0.000753   0.000029   0.000000   0.003736  -0.000854
   38  O  1 ZZZ  -0.000029  -0.000753   0.000000   0.000854   0.003736
   39  O  1 XXY   0.001347  -0.000052   0.000000  -0.006682   0.001528
   40  O  1 XXZ   0.000052   0.001347   0.000000  -0.001528  -0.006682
   41  O  1 YYX   0.000000   0.000000   0.021872   0.000000   0.000000
   42  O  1 YYZ  -0.000013  -0.000337   0.000000   0.000382   0.001671
   43  O  1 ZZX   0.000000   0.000000   0.021872   0.000000   0.000000
   44  O  1 ZZY  -0.000337   0.000013   0.000000   0.001671  -0.000382
   45  O  1 XYZ   0.000000   0.000000   0.000000   0.000000   0.000000
   46  O  2  S    0.000000   0.000000  -0.032423   0.000000   0.000000
   47  O  2  S    0.000000   0.000000  -0.051723   0.000000   0.000000
   48  O  2  X    0.000000   0.000000  -0.113716   0.000000   0.000000
   49  O  2  Y   -0.107681   0.004123   0.000000  -0.160409   0.036673
   50  O  2  Z   -0.004123  -0.107681   0.000000  -0.036673  -0.160409
   51  O  2  S    0.000000   0.000000  -0.114843   0.000000   0.000000
   52  O  2  X    0.000000   0.000000  -0.255983   0.000000   0.000000
   53  O  2  Y   -0.149523   0.005725   0.000000  -0.586442   0.134072
   54  O  2  Z   -0.005725  -0.149523   0.000000  -0.134072  -0.586442
   55  O  2  S    0.000000   0.000000   8.278094   0.000000   0.000000
   56  O  2  X    0.000000   0.000000  -5.708569   0.000000   0.000000
   57  O  2  Y   -1.387667   0.053132   0.000000   0.988963  -0.226096
   58  O  2  Z   -0.053132  -1.387667   0.000000   0.226096   0.988963
   59  O  2  S    0.000000   0.000000  23.148064   0.000000   0.000000
   60  O  2  X    0.000000   0.000000  -7.270676   0.000000   0.000000
   61  O  2  Y   -1.883145   0.072103   0.000000  -0.426014   0.097395
   62  O  2  Z   -0.072103  -1.883145   0.000000  -0.097395  -0.426014
   63  O  2 XX    0.000000   0.000000  -0.010087   0.000000   0.000000
   64  O  2 YY    0.000000   0.000000   0.005044   0.000000   0.000000
   65  O  2 ZZ    0.000000   0.000000   0.005044   0.000000   0.000000
   66  O  2 XY    0.012026  -0.000460   0.000000   0.001403  -0.000321
   67  O  2 XZ    0.000460   0.012026   0.000000   0.000321   0.001403
   68  O  2 YZ    0.000000   0.000000   0.000000   0.000000   0.000000
   69  O  2 XX    0.000000   0.000000   0.126678   0.000000   0.000000
   70  O  2 YY    0.000000   0.000000  -0.063339   0.000000   0.000000
   71  O  2 ZZ    0.000000   0.000000  -0.063339   0.000000   0.000000
   72  O  2 XY   -0.037382   0.001431   0.000000   0.049180  -0.011243
   73  O  2 XZ   -0.001431  -0.037382   0.000000   0.011243   0.049180
   74  O  2 YZ    0.000000   0.000000   0.000000   0.000000   0.000000
   75  O  2 XX    0.000000   0.000000   2.544868   0.000000   0.000000
   76  O  2 YY    0.000000   0.000000  -1.272434   0.000000   0.000000
   77  O  2 ZZ    0.000000   0.000000  -1.272434   0.000000   0.000000
   78  O  2 XY    2.038609  -0.078055   0.000000  -0.006862   0.001569
   79  O  2 XZ    0.078055   2.038609   0.000000  -0.001569  -0.006862
   80  O  2 YZ    0.000000   0.000000   0.000000   0.000000   0.000000
   81  O  2 XXX   0.000000   0.000000  -0.032605   0.000000   0.000000
   82  O  2 YYY   0.000753  -0.000029   0.000000   0.003736  -0.000854
   83  O  2 ZZZ   0.000029   0.000753   0.000000   0.000854   0.003736
   84  O  2 XXY  -0.001347   0.000052   0.000000  -0.006682   0.001528
   85  O  2 XXZ  -0.000052  -0.001347   0.000000  -0.001528  -0.006682
   86  O  2 YYX   0.000000   0.000000   0.021872   0.000000   0.000000
   87  O  2 YYZ   0.000013   0.000337   0.000000   0.000382   0.001671
   88  O  2 ZZX   0.000000   0.000000   0.021872   0.000000   0.000000
   89  O  2 ZZY   0.000337  -0.000013   0.000000   0.001671  -0.000382
   90  O  2 XYZ   0.000000   0.000000   0.000000   0.000000   0.000000

                     31         32         33         34         35
                    1.2421     1.2897     1.5121     1.5121     1.6709
                     A          A          A          A          A   
    1  O  1  S    0.026034   0.056426   0.000000   0.000000   0.055029
    2  O  1  S    0.048690   0.113161   0.000000   0.000000   0.123185
    3  O  1  X    0.204027   0.099881   0.000000   0.000000  -0.042515
    4  O  1  Y    0.000000   0.000000   0.138779  -0.001084   0.000000
    5  O  1  Z    0.000000   0.000000   0.001084   0.138779   0.000000
    6  O  1  S   -0.063992  -0.713090   0.000000   0.000000  -1.102577
    7  O  1  X    0.456666   0.509511   0.000000   0.000000  -0.439268
    8  O  1  Y    0.000000   0.000000   0.629480  -0.004917   0.000000
    9  O  1  Z    0.000000   0.000000   0.004917   0.629480   0.000000
   10  O  1  S   -6.048963   2.042529   0.000000   0.000000  -0.515452
   11  O  1  X   -5.473577  -1.205179   0.000000   0.000000   1.268854
   12  O  1  Y    0.000000   0.000000  -3.539485   0.027649   0.000000
   13  O  1  Z    0.000000   0.000000  -0.027649  -3.539485   0.000000
   14  O  1  S  -13.593278  -0.926784   0.000000   0.000000   0.379682
   15  O  1  X   -3.743270  -0.199280   0.000000   0.000000   0.647917
   16  O  1  Y    0.000000   0.000000  -0.407043   0.003180   0.000000
   17  O  1  Z    0.000000   0.000000  -0.003180  -0.407043   0.000000
   18  O  1 XX    0.019849   0.008662   0.000000   0.000000  -0.012160
   19  O  1 YY   -0.009924  -0.004331   0.000000   0.000000   0.006080
   20  O  1 ZZ   -0.009924  -0.004331   0.000000   0.000000   0.006080
   21  O  1 XY    0.000000   0.000000   0.007147  -0.000056   0.000000
   22  O  1 XZ    0.000000   0.000000   0.000056   0.007147   0.000000
   23  O  1 YZ    0.000000   0.000000   0.000000   0.000000   0.000000
   24  O  1 XX   -0.275930  -0.018688   0.000000   0.000000  -0.166152
   25  O  1 YY    0.137965   0.009344   0.000000   0.000000   0.083076
   26  O  1 ZZ    0.137965   0.009344   0.000000   0.000000   0.083076
   27  O  1 XY    0.000000   0.000000  -0.037036   0.000289   0.000000
   28  O  1 XZ    0.000000   0.000000  -0.000289  -0.037036   0.000000
   29  O  1 YZ    0.000000   0.000000   0.000000   0.000000   0.000000
   30  O  1 XX   -1.215212  -0.682167   0.000000   0.000000   1.394071
   31  O  1 YY    0.607606   0.341084   0.000000   0.000000  -0.697035
   32  O  1 ZZ    0.607606   0.341084   0.000000   0.000000  -0.697035
   33  O  1 XY    0.000000   0.000000  -1.956555   0.015284   0.000000
   34  O  1 XZ    0.000000   0.000000  -0.015284  -1.956555   0.000000
   35  O  1 YZ    0.000000   0.000000   0.000000   0.000000   0.000000
   36  O  1 XXX  -0.042953  -0.018556   0.000000   0.000000   0.001869
   37  O  1 YYY   0.000000   0.000000   0.010251  -0.000080   0.000000
   38  O  1 ZZZ   0.000000   0.000000   0.000080   0.010251   0.000000
   39  O  1 XXY   0.000000   0.000000  -0.018338   0.000143   0.000000
   40  O  1 XXZ   0.000000   0.000000  -0.000143  -0.018338   0.000000
   41  O  1 YYX   0.028814   0.012448   0.000000   0.000000  -0.001253
   42  O  1 YYZ   0.000000   0.000000   0.000036   0.004585   0.000000
   43  O  1 ZZX   0.028814   0.012448   0.000000   0.000000  -0.001253
   44  O  1 ZZY   0.000000   0.000000   0.004585  -0.000036   0.000000
   45  O  1 XYZ   0.000000   0.000000   0.000000   0.000000   0.000000
   46  O  2  S   -0.026034   0.056426   0.000000   0.000000   0.055029
   47  O  2  S   -0.048690   0.113161   0.000000   0.000000   0.123185
   48  O  2  X    0.204027  -0.099881   0.000000   0.000000   0.042515
   49  O  2  Y    0.000000   0.000000  -0.138779   0.001084   0.000000
   50  O  2  Z    0.000000   0.000000  -0.001084  -0.138779   0.000000
   51  O  2  S    0.063992  -0.713090   0.000000   0.000000  -1.102577
   52  O  2  X    0.456666  -0.509511   0.000000   0.000000   0.439268
   53  O  2  Y    0.000000   0.000000  -0.629480   0.004917   0.000000
   54  O  2  Z    0.000000   0.000000  -0.004917  -0.629480   0.000000
   55  O  2  S    6.048963   2.042529   0.000000   0.000000  -0.515452
   56  O  2  X   -5.473577   1.205179   0.000000   0.000000  -1.268854
   57  O  2  Y    0.000000   0.000000   3.539485  -0.027649   0.000000
   58  O  2  Z    0.000000   0.000000   0.027649   3.539485   0.000000
   59  O  2  S   13.593278  -0.926784   0.000000   0.000000   0.379682
   60  O  2  X   -3.743270   0.199280   0.000000   0.000000  -0.647917
   61  O  2  Y    0.000000   0.000000   0.407043  -0.003180   0.000000
   62  O  2  Z    0.000000   0.000000   0.003180   0.407043   0.000000
   63  O  2 XX   -0.019849   0.008662   0.000000   0.000000  -0.012160
   64  O  2 YY    0.009924  -0.004331   0.000000   0.000000   0.006080
   65  O  2 ZZ    0.009924  -0.004331   0.000000   0.000000   0.006080
   66  O  2 XY    0.000000   0.000000   0.007147  -0.000056   0.000000
   67  O  2 XZ    0.000000   0.000000   0.000056   0.007147   0.000000
   68  O  2 YZ    0.000000   0.000000   0.000000   0.000000   0.000000
   69  O  2 XX    0.275930  -0.018688   0.000000   0.000000  -0.166152
   70  O  2 YY   -0.137965   0.009344   0.000000   0.000000   0.083076
   71  O  2 ZZ   -0.137965   0.009344   0.000000   0.000000   0.083076
   72  O  2 XY    0.000000   0.000000  -0.037036   0.000289   0.000000
   73  O  2 XZ    0.000000   0.000000  -0.000289  -0.037036   0.000000
   74  O  2 YZ    0.000000   0.000000   0.000000   0.000000   0.000000
   75  O  2 XX    1.215212  -0.682167   0.000000   0.000000   1.394071
   76  O  2 YY   -0.607606   0.341084   0.000000   0.000000  -0.697035
   77  O  2 ZZ   -0.607606   0.341084   0.000000   0.000000  -0.697035
   78  O  2 XY    0.000000   0.000000  -1.956555   0.015284   0.000000
   79  O  2 XZ    0.000000   0.000000  -0.015284  -1.956555   0.000000
   80  O  2 YZ    0.000000   0.000000   0.000000   0.000000   0.000000
   81  O  2 XXX  -0.042953   0.018556   0.000000   0.000000  -0.001869
   82  O  2 YYY   0.000000   0.000000  -0.010251   0.000080   0.000000
   83  O  2 ZZZ   0.000000   0.000000  -0.000080  -0.010251   0.000000
   84  O  2 XXY   0.000000   0.000000   0.018338  -0.000143   0.000000
   85  O  2 XXZ   0.000000   0.000000   0.000143   0.018338   0.000000
   86  O  2 YYX   0.028814  -0.012448   0.000000   0.000000   0.001253
   87  O  2 YYZ   0.000000   0.000000  -0.000036  -0.004585   0.000000
   88  O  2 ZZX   0.028814  -0.012448   0.000000   0.000000   0.001253
   89  O  2 ZZY   0.000000   0.000000  -0.004585   0.000036   0.000000
   90  O  2 XYZ   0.000000   0.000000   0.000000   0.000000   0.000000

                     36         37         38         39         40
                    2.1664     2.1664     2.2624     2.2624     2.3607
                     A          A          A          A          A   
    1  O  1  S    0.000000   0.000000   0.000000   0.000000  -0.076614
    2  O  1  S    0.000000   0.000000   0.000000   0.000000  -0.173289
    3  O  1  X    0.000000   0.000000   0.000000   0.000000   0.108254
    4  O  1  Y   -0.064617  -0.040216   0.000000   0.000000   0.000000
    5  O  1  Z    0.040216  -0.064617   0.000000   0.000000   0.000000
    6  O  1  S    0.000000   0.000000   0.000000   0.000000   2.103828
    7  O  1  X    0.000000   0.000000   0.000000   0.000000  -0.129319
    8  O  1  Y   -0.079151  -0.049261   0.000000   0.000000   0.000000
    9  O  1  Z    0.049261  -0.079151   0.000000   0.000000   0.000000
   10  O  1  S    0.000000   0.000000   0.000000   0.000000 -16.408506
   11  O  1  X    0.000000   0.000000   0.000000   0.000000  -9.882552
   12  O  1  Y    0.151169   0.094083   0.000000   0.000000   0.000000
   13  O  1  Z   -0.094083   0.151169   0.000000   0.000000   0.000000
   14  O  1  S    0.000000   0.000000   0.000000   0.000000 -15.548776
   15  O  1  X    0.000000   0.000000   0.000000   0.000000  -4.734146
   16  O  1  Y   -0.026567  -0.016534   0.000000   0.000000   0.000000
   17  O  1  Z    0.016534  -0.026567   0.000000   0.000000   0.000000
   18  O  1 XX    0.000000   0.000000   0.000000   0.000000   0.033962
   19  O  1 YY    0.000000   0.000000   0.003288   0.004167  -0.016981
   20  O  1 ZZ    0.000000   0.000000  -0.003288  -0.004167  -0.016981
   21  O  1 XY    0.014413   0.008970   0.000000   0.000000   0.000000
   22  O  1 XZ   -0.008970   0.014413   0.000000   0.000000   0.000000
   23  O  1 YZ    0.000000   0.000000   0.004811  -0.003796   0.000000
   24  O  1 XX    0.000000   0.000000   0.000000   0.000000  -0.266099
   25  O  1 YY    0.000000   0.000000   0.404434   0.512533   0.133050
   26  O  1 ZZ    0.000000   0.000000  -0.404434  -0.512533   0.133050
   27  O  1 XY    0.576797   0.358983   0.000000   0.000000   0.000000
   28  O  1 XZ   -0.358983   0.576797   0.000000   0.000000   0.000000
   29  O  1 YZ    0.000000   0.000000   0.591822  -0.467000   0.000000
   30  O  1 XX    0.000000   0.000000   0.000000   0.000000  -2.757525
   31  O  1 YY    0.000000   0.000000  -0.169901  -0.215313   1.378763
   32  O  1 ZZ    0.000000   0.000000   0.169901   0.215313   1.378763
   33  O  1 XY   -0.379141  -0.235967   0.000000   0.000000   0.000000
   34  O  1 XZ    0.235967  -0.379141   0.000000   0.000000   0.000000
   35  O  1 YZ    0.000000   0.000000  -0.248622   0.196185   0.000000
   36  O  1 XXX   0.000000   0.000000   0.000000   0.000000  -0.115867
   37  O  1 YYY  -0.002438  -0.001517   0.000000   0.000000   0.000000
   38  O  1 ZZZ   0.001517  -0.002438   0.000000   0.000000   0.000000
   39  O  1 XXY   0.004362   0.002714   0.000000   0.000000   0.000000
   40  O  1 XXZ  -0.002714   0.004362   0.000000   0.000000   0.000000
   41  O  1 YYX   0.000000   0.000000   0.021406   0.027128   0.077726
   42  O  1 YYZ   0.000679  -0.001090   0.000000   0.000000   0.000000
   43  O  1 ZZX   0.000000   0.000000  -0.021406  -0.027128   0.077726
   44  O  1 ZZY  -0.001090  -0.000679   0.000000   0.000000   0.000000
   45  O  1 XYZ   0.000000   0.000000   0.031325  -0.024718   0.000000
   46  O  2  S    0.000000   0.000000   0.000000   0.000000   0.076614
   47  O  2  S    0.000000   0.000000   0.000000   0.000000   0.173289
   48  O  2  X    0.000000   0.000000   0.000000   0.000000   0.108254
   49  O  2  Y   -0.064617  -0.040216   0.000000   0.000000   0.000000
   50  O  2  Z    0.040216  -0.064617   0.000000   0.000000   0.000000
   51  O  2  S    0.000000   0.000000   0.000000   0.000000  -2.103828
   52  O  2  X    0.000000   0.000000   0.000000   0.000000  -0.129319
   53  O  2  Y   -0.079151  -0.049261   0.000000   0.000000   0.000000
   54  O  2  Z    0.049261  -0.079151   0.000000   0.000000   0.000000
   55  O  2  S    0.000000   0.000000   0.000000   0.000000  16.408506
   56  O  2  X    0.000000   0.000000   0.000000   0.000000  -9.882552
   57  O  2  Y    0.151169   0.094083   0.000000   0.000000   0.000000
   58  O  2  Z   -0.094083   0.151169   0.000000   0.000000   0.000000
   59  O  2  S    0.000000   0.000000   0.000000   0.000000  15.548776
   60  O  2  X    0.000000   0.000000   0.000000   0.000000  -4.734146
   61  O  2  Y   -0.026567  -0.016534   0.000000   0.000000   0.000000
   62  O  2  Z    0.016534  -0.026567   0.000000   0.000000   0.000000
   63  O  2 XX    0.000000   0.000000   0.000000   0.000000  -0.033962
   64  O  2 YY    0.000000   0.000000   0.003288   0.004167   0.016981
   65  O  2 ZZ    0.000000   0.000000  -0.003288  -0.004167   0.016981
   66  O  2 XY   -0.014413  -0.008970   0.000000   0.000000   0.000000
   67  O  2 XZ    0.008970  -0.014413   0.000000   0.000000   0.000000
   68  O  2 YZ    0.000000   0.000000   0.004811  -0.003796   0.000000
   69  O  2 XX    0.000000   0.000000   0.000000   0.000000   0.266099
   70  O  2 YY    0.000000   0.000000   0.404434   0.512533  -0.133050
   71  O  2 ZZ    0.000000   0.000000  -0.404434  -0.512533  -0.133050
   72  O  2 XY   -0.576797  -0.358983   0.000000   0.000000   0.000000
   73  O  2 XZ    0.358983  -0.576797   0.000000   0.000000   0.000000
   74  O  2 YZ    0.000000   0.000000   0.591822  -0.467000   0.000000
   75  O  2 XX    0.000000   0.000000   0.000000   0.000000   2.757525
   76  O  2 YY    0.000000   0.000000  -0.169901  -0.215313  -1.378763
   77  O  2 ZZ    0.000000   0.000000   0.169901   0.215313  -1.378763
   78  O  2 XY    0.379141   0.235967   0.000000   0.000000   0.000000
   79  O  2 XZ   -0.235967   0.379141   0.000000   0.000000   0.000000
   80  O  2 YZ    0.000000   0.000000  -0.248622   0.196185   0.000000
   81  O  2 XXX   0.000000   0.000000   0.000000   0.000000  -0.115867
   82  O  2 YYY  -0.002438  -0.001517   0.000000   0.000000   0.000000
   83  O  2 ZZZ   0.001517  -0.002438   0.000000   0.000000   0.000000
   84  O  2 XXY   0.004362   0.002714   0.000000   0.000000   0.000000
   85  O  2 XXZ  -0.002714   0.004362   0.000000   0.000000   0.000000
   86  O  2 YYX   0.000000   0.000000  -0.021406  -0.027128   0.077726
   87  O  2 YYZ   0.000679  -0.001090   0.000000   0.000000   0.000000
   88  O  2 ZZX   0.000000   0.000000   0.021406   0.027128   0.077726
   89  O  2 ZZY  -0.001090  -0.000679   0.000000   0.000000   0.000000
   90  O  2 XYZ   0.000000   0.000000  -0.031325   0.024718   0.000000

                     41         42         43         44         45
                    2.5987     2.5987     2.8509     3.0981     3.0981
                     A          A          A          A          A   
    1  O  1  S    0.000000   0.000000   0.029811   0.000000   0.000000
    2  O  1  S    0.000000   0.000000   0.069431   0.000000   0.000000
    3  O  1  X    0.000000   0.000000  -0.029930   0.000000   0.000000
    4  O  1  Y    0.000000   0.000000   0.000000   0.007904   0.090865
    5  O  1  Z    0.000000   0.000000   0.000000   0.090865  -0.007904
    6  O  1  S    0.000000   0.000000  -0.618636   0.000000   0.000000
    7  O  1  X    0.000000   0.000000  -0.415877   0.000000   0.000000
    8  O  1  Y    0.000000   0.000000   0.000000   0.001565   0.017994
    9  O  1  Z    0.000000   0.000000   0.000000   0.017994  -0.001565
   10  O  1  S    0.000000   0.000000   0.562375   0.000000   0.000000
   11  O  1  X    0.000000   0.000000   0.475280   0.000000   0.000000
   12  O  1  Y    0.000000   0.000000   0.000000  -0.002535  -0.029140
   13  O  1  Z    0.000000   0.000000   0.000000  -0.029140   0.002535
   14  O  1  S    0.000000   0.000000  -0.121084   0.000000   0.000000
   15  O  1  X    0.000000   0.000000  -0.408501   0.000000   0.000000
   16  O  1  Y    0.000000   0.000000   0.000000  -0.047568  -0.546862
   17  O  1  Z    0.000000   0.000000   0.000000  -0.546862   0.047568
   18  O  1 XX    0.000000   0.000000   0.026462   0.000000   0.000000
   19  O  1 YY    0.010894   0.002746  -0.013231   0.000000   0.000000
   20  O  1 ZZ   -0.010894  -0.002746  -0.013231   0.000000   0.000000
   21  O  1 XY    0.000000   0.000000   0.000000   0.000797   0.009162
   22  O  1 XZ    0.000000   0.000000   0.000000   0.009162  -0.000797
   23  O  1 YZ   -0.003171   0.012580   0.000000   0.000000   0.000000
   24  O  1 XX    0.000000   0.000000   0.762768   0.000000   0.000000
   25  O  1 YY    0.697373   0.175778  -0.381384   0.000000   0.000000
   26  O  1 ZZ   -0.697373  -0.175778  -0.381384   0.000000   0.000000
   27  O  1 XY    0.000000   0.000000   0.000000   0.087236   1.002908
   28  O  1 XZ    0.000000   0.000000   0.000000   1.002908  -0.087236
   29  O  1 YZ   -0.202971   0.805257   0.000000   0.000000   0.000000
   30  O  1 XX    0.000000   0.000000  -0.225867   0.000000   0.000000
   31  O  1 YY   -0.431405  -0.108739   0.112933   0.000000   0.000000
   32  O  1 ZZ    0.431405   0.108739   0.112933   0.000000   0.000000
   33  O  1 XY    0.000000   0.000000   0.000000  -0.044587  -0.512600
   34  O  1 XZ    0.000000   0.000000   0.000000  -0.512600   0.044587
   35  O  1 YZ    0.125561  -0.498144   0.000000   0.000000   0.000000
   36  O  1 XXX   0.000000   0.000000  -0.055200   0.000000   0.000000
   37  O  1 YYY   0.000000   0.000000   0.000000   0.002393   0.027512
   38  O  1 ZZZ   0.000000   0.000000   0.000000   0.027512  -0.002393
   39  O  1 XXY   0.000000   0.000000   0.000000  -0.004281  -0.049214
   40  O  1 XXZ   0.000000   0.000000   0.000000  -0.049214   0.004281
   41  O  1 YYX  -0.017261  -0.004351   0.037029   0.000000   0.000000
   42  O  1 YYZ   0.000000   0.000000   0.000000   0.012304  -0.001070
   43  O  1 ZZX   0.017261   0.004351   0.037029   0.000000   0.000000
   44  O  1 ZZY   0.000000   0.000000   0.000000   0.001070   0.012304
   45  O  1 XYZ   0.005024  -0.019931   0.000000   0.000000   0.000000
   46  O  2  S    0.000000   0.000000   0.029811   0.000000   0.000000
   47  O  2  S    0.000000   0.000000   0.069431   0.000000   0.000000
   48  O  2  X    0.000000   0.000000   0.029930   0.000000   0.000000
   49  O  2  Y    0.000000   0.000000   0.000000  -0.007904  -0.090865
   50  O  2  Z    0.000000   0.000000   0.000000  -0.090865   0.007904
   51  O  2  S    0.000000   0.000000  -0.618636   0.000000   0.000000
   52  O  2  X    0.000000   0.000000   0.415877   0.000000   0.000000
   53  O  2  Y    0.000000   0.000000   0.000000  -0.001565  -0.017994
   54  O  2  Z    0.000000   0.000000   0.000000  -0.017994   0.001565
   55  O  2  S    0.000000   0.000000   0.562375   0.000000   0.000000
   56  O  2  X    0.000000   0.000000  -0.475280   0.000000   0.000000
   57  O  2  Y    0.000000   0.000000   0.000000   0.002535   0.029140
   58  O  2  Z    0.000000   0.000000   0.000000   0.029140  -0.002535
   59  O  2  S    0.000000   0.000000  -0.121084   0.000000   0.000000
   60  O  2  X    0.000000   0.000000   0.408501   0.000000   0.000000
   61  O  2  Y    0.000000   0.000000   0.000000   0.047568   0.546862
   62  O  2  Z    0.000000   0.000000   0.000000   0.546862  -0.047568
   63  O  2 XX    0.000000   0.000000   0.026462   0.000000   0.000000
   64  O  2 YY   -0.010894  -0.002746  -0.013231   0.000000   0.000000
   65  O  2 ZZ    0.010894   0.002746  -0.013231   0.000000   0.000000
   66  O  2 XY    0.000000   0.000000   0.000000   0.000797   0.009162
   67  O  2 XZ    0.000000   0.000000   0.000000   0.009162  -0.000797
   68  O  2 YZ    0.003171  -0.012580   0.000000   0.000000   0.000000
   69  O  2 XX    0.000000   0.000000   0.762768   0.000000   0.000000
   70  O  2 YY   -0.697373  -0.175778  -0.381384   0.000000   0.000000
   71  O  2 ZZ    0.697373   0.175778  -0.381384   0.000000   0.000000
   72  O  2 XY    0.000000   0.000000   0.000000   0.087236   1.002908
   73  O  2 XZ    0.000000   0.000000   0.000000   1.002908  -0.087236
   74  O  2 YZ    0.202971  -0.805257   0.000000   0.000000   0.000000
   75  O  2 XX    0.000000   0.000000  -0.225867   0.000000   0.000000
   76  O  2 YY    0.431405   0.108739   0.112933   0.000000   0.000000
   77  O  2 ZZ   -0.431405  -0.108739   0.112933   0.000000   0.000000
   78  O  2 XY    0.000000   0.000000   0.000000  -0.044587  -0.512600
   79  O  2 XZ    0.000000   0.000000   0.000000  -0.512600   0.044587
   80  O  2 YZ   -0.125561   0.498144   0.000000   0.000000   0.000000
   81  O  2 XXX   0.000000   0.000000   0.055200   0.000000   0.000000
   82  O  2 YYY   0.000000   0.000000   0.000000  -0.002393  -0.027512
   83  O  2 ZZZ   0.000000   0.000000   0.000000  -0.027512   0.002393
   84  O  2 XXY   0.000000   0.000000   0.000000   0.004281   0.049214
   85  O  2 XXZ   0.000000   0.000000   0.000000   0.049214  -0.004281
   86  O  2 YYX  -0.017261  -0.004351  -0.037029   0.000000   0.000000
   87  O  2 YYZ   0.000000   0.000000   0.000000  -0.012304   0.001070
   88  O  2 ZZX   0.017261   0.004351  -0.037029   0.000000   0.000000
   89  O  2 ZZY   0.000000   0.000000   0.000000  -0.001070  -0.012304
   90  O  2 XYZ   0.005024  -0.019931   0.000000   0.000000   0.000000

                     46         47         48         49         50
                    3.5324     4.8675     4.8675     5.0898     5.0898
                     A          A          A          A          A   
    1  O  1  S   -0.001185   0.000000   0.000000   0.000000   0.000000
    2  O  1  S   -0.008801   0.000000   0.000000   0.000000   0.000000
    3  O  1  X   -0.232104   0.000000   0.000000   0.000000   0.000000
    4  O  1  Y    0.000000   0.000000   0.000000  -0.648130   0.238681
    5  O  1  Z    0.000000   0.000000   0.000000  -0.238681  -0.648130
    6  O  1  S    0.916295   0.000000   0.000000   0.000000   0.000000
    7  O  1  X   -0.606854   0.000000   0.000000   0.000000   0.000000
    8  O  1  Y    0.000000   0.000000   0.000000   0.689774  -0.254017
    9  O  1  Z    0.000000   0.000000   0.000000   0.254017   0.689774
   10  O  1  S  -12.513053   0.000000   0.000000   0.000000   0.000000
   11  O  1  X   -7.807094   0.000000   0.000000   0.000000   0.000000
   12  O  1  Y    0.000000   0.000000   0.000000  -0.384297   0.141522
   13  O  1  Z    0.000000   0.000000   0.000000  -0.141522  -0.384297
   14  O  1  S   -8.314144   0.000000   0.000000   0.000000   0.000000
   15  O  1  X   -2.313636   0.000000   0.000000   0.000000   0.000000
   16  O  1  Y    0.000000   0.000000   0.000000   0.125072  -0.046059
   17  O  1  Z    0.000000   0.000000   0.000000   0.046059   0.125072
   18  O  1 XX    0.025608   0.000000   0.000000   0.000000   0.000000
   19  O  1 YY   -0.012804  -0.008750  -0.000742   0.000000   0.000000
   20  O  1 ZZ   -0.012804   0.008750   0.000742   0.000000   0.000000
   21  O  1 XY    0.000000   0.000000   0.000000   0.017777  -0.006546
   22  O  1 XZ    0.000000   0.000000   0.000000   0.006546   0.017777
   23  O  1 YZ    0.000000   0.000857  -0.010104   0.000000   0.000000
   24  O  1 XX   -1.601491   0.000000   0.000000   0.000000   0.000000
   25  O  1 YY    0.800745  -0.107199  -0.009092   0.000000   0.000000
   26  O  1 ZZ    0.800745   0.107199   0.009092   0.000000   0.000000
   27  O  1 XY    0.000000   0.000000   0.000000  -0.169090   0.062270
   28  O  1 XZ    0.000000   0.000000   0.000000  -0.062270  -0.169090
   29  O  1 YZ    0.000000   0.010498  -0.123783   0.000000   0.000000
   30  O  1 XX   -1.551342   0.000000   0.000000   0.000000   0.000000
   31  O  1 YY    0.775671   0.018237   0.001547   0.000000   0.000000
   32  O  1 ZZ    0.775671  -0.018237  -0.001547   0.000000   0.000000
[...]
   24  O  1 XX    0.002766   0.000000   0.000000   0.033247   0.000000
   25  O  1 YY   -0.001383   0.000000   0.000000  -0.016624   0.000000
   26  O  1 ZZ   -0.001383   0.000000   0.000000  -0.016624   0.000000
   27  O  1 XY    0.000000  -0.010868   0.001766   0.000000   0.021583
   28  O  1 XZ    0.000000  -0.001766  -0.010868   0.000000   0.003842
   29  O  1 YZ    0.000000   0.000000   0.000000   0.000000   0.000000
   30  O  1 XX   -0.017830   0.000000   0.000000  -0.288611   0.000000
   31  O  1 YY    0.008915   0.000000   0.000000   0.144306   0.000000
   32  O  1 ZZ    0.008915   0.000000   0.000000   0.144306   0.000000
   33  O  1 XY    0.000000  -0.013054   0.002122   0.000000  -0.335943
   34  O  1 XZ    0.000000  -0.002122  -0.013054   0.000000  -0.059808
   35  O  1 YZ    0.000000   0.000000   0.000000   0.000000   0.000000
   36  O  1 XXX   0.001723   0.000000   0.000000  -0.000521   0.000000
   37  O  1 YYY   0.000000   0.002261  -0.000368   0.000000  -0.000167
   38  O  1 ZZZ   0.000000   0.000368   0.002261   0.000000  -0.000030
   39  O  1 XXY   0.000000  -0.004045   0.000658   0.000000   0.000298
   40  O  1 XXZ   0.000000  -0.000658  -0.004045   0.000000   0.000053
   41  O  1 YYX  -0.001156   0.000000   0.000000   0.000349   0.000000
   42  O  1 YYZ   0.000000   0.000164   0.001011   0.000000  -0.000013
   43  O  1 ZZX  -0.001156   0.000000   0.000000   0.000349   0.000000
   44  O  1 ZZY   0.000000   0.001011  -0.000164   0.000000  -0.000075
   45  O  1 XYZ   0.000000   0.000000   0.000000   0.000000   0.000000
   46  O  2  S    0.022053   0.000000   0.000000  -0.010277   0.000000
   47  O  2  S    0.036075   0.000000   0.000000  -0.016162   0.000000
   48  O  2  X   -0.047158   0.000000   0.000000  -0.020300   0.000000
   49  O  2  Y    0.000000  -0.072471   0.011779   0.000000  -0.112876
   50  O  2  Z    0.000000  -0.011779  -0.072471   0.000000  -0.020095
   51  O  2  S   -0.075561   0.000000   0.000000   0.020776   0.000000
   52  O  2  X   -0.033730   0.000000   0.000000  -0.025539   0.000000
   53  O  2  Y    0.000000  -0.057518   0.009349   0.000000  -0.147804
   54  O  2  Z    0.000000  -0.009349  -0.057518   0.000000  -0.026314
   55  O  2  S   -0.619725   0.000000   0.000000   0.847832   0.000000
   56  O  2  X   -0.225348   0.000000   0.000000  -0.102424   0.000000
   57  O  2  Y    0.000000  -0.366838   0.059623   0.000000  -0.272724
   58  O  2  Z    0.000000  -0.059623  -0.366838   0.000000  -0.048553
   59  O  2  S    0.942294   0.000000   0.000000  -0.325560   0.000000
   60  O  2  X    0.525052   0.000000   0.000000   1.560129   0.000000
   61  O  2  Y    0.000000   0.692933  -0.112625   0.000000   2.037095
   62  O  2  Z    0.000000   0.112625   0.692933   0.000000   0.362665
   63  O  2 XX   -0.002184   0.000000   0.000000   0.001465   0.000000
   64  O  2 YY    0.001092   0.000000   0.000000  -0.000733   0.000000
   65  O  2 ZZ    0.001092   0.000000   0.000000  -0.000733   0.000000
   66  O  2 XY    0.000000   0.002856  -0.000464   0.000000  -0.003449
   67  O  2 XZ    0.000000   0.000464   0.002856   0.000000  -0.000614
   68  O  2 YZ    0.000000   0.000000   0.000000   0.000000   0.000000
   69  O  2 XX    0.002766   0.000000   0.000000   0.033247   0.000000
   70  O  2 YY   -0.001383   0.000000   0.000000  -0.016624   0.000000
   71  O  2 ZZ   -0.001383   0.000000   0.000000  -0.016624   0.000000
   72  O  2 XY    0.000000   0.010868  -0.001766   0.000000   0.021583
   73  O  2 XZ    0.000000   0.001766   0.010868   0.000000   0.003842
   74  O  2 YZ    0.000000   0.000000   0.000000   0.000000   0.000000
   75  O  2 XX   -0.017830   0.000000   0.000000  -0.288611   0.000000
   76  O  2 YY    0.008915   0.000000   0.000000   0.144306   0.000000
   77  O  2 ZZ    0.008915   0.000000   0.000000   0.144306   0.000000
   78  O  2 XY    0.000000   0.013054  -0.002122   0.000000  -0.335943
   79  O  2 XZ    0.000000   0.002122   0.013054   0.000000  -0.059808
   80  O  2 YZ    0.000000   0.000000   0.000000   0.000000   0.000000
   81  O  2 XXX  -0.001723   0.000000   0.000000   0.000521   0.000000
   82  O  2 YYY   0.000000   0.002261  -0.000368   0.000000   0.000167
   83  O  2 ZZZ   0.000000   0.000368   0.002261   0.000000   0.000030
   84  O  2 XXY   0.000000  -0.004045   0.000658   0.000000  -0.000298
   85  O  2 XXZ   0.000000  -0.000658  -0.004045   0.000000  -0.000053
   86  O  2 YYX   0.001156   0.000000   0.000000  -0.000349   0.000000
   87  O  2 YYZ   0.000000   0.000164   0.001011   0.000000   0.000013
   88  O  2 ZZX   0.001156   0.000000   0.000000  -0.000349   0.000000
   89  O  2 ZZY   0.000000   0.001011  -0.000164   0.000000   0.000075
   90  O  2 XYZ   0.000000   0.000000   0.000000   0.000000   0.000000

                     16         17         18         19
                    0.3047     0.3866     0.5325     0.5755
                     A          A          A          A   
    1  O  1  S    0.000000   0.020656  -0.042293   0.000000
    2  O  1  S    0.000000   0.037715  -0.075540   0.000000
    3  O  1  X    0.000000   0.004258   0.217671   0.000000
    4  O  1  Y   -0.020095   0.000000   0.000000   0.000000
    5  O  1  Z    0.112876   0.000000   0.000000   0.000000
    6  O  1  S    0.000000  -0.216338   0.274662   0.000000
    7  O  1  X    0.000000  -0.034687   0.321560   0.000000
    8  O  1  Y   -0.026314   0.000000   0.000000   0.000000
    9  O  1  Z    0.147804   0.000000   0.000000   0.000000
   10  O  1  S    0.000000   1.666251   0.270157   0.000000
   11  O  1  X    0.000000   2.201774   0.637743   0.000000
   12  O  1  Y   -0.048553   0.000000   0.000000   0.000000
   13  O  1  Z    0.272724   0.000000   0.000000   0.000000
   14  O  1  S    0.000000  26.336387  -2.506825   0.000000
   15  O  1  X    0.000000   8.737726  -1.169589   0.000000
   16  O  1  Y    0.362665   0.000000   0.000000   0.000000
   17  O  1  Z   -2.037095   0.000000   0.000000   0.000000
   18  O  1 XX    0.000000  -0.005498  -0.009446   0.000000
   19  O  1 YY    0.000000   0.002749   0.004723   0.009743
   20  O  1 ZZ    0.000000   0.002749   0.004723  -0.009743
   21  O  1 XY    0.000614   0.000000   0.000000   0.000000
   22  O  1 XZ   -0.003449   0.000000   0.000000   0.000000
   23  O  1 YZ    0.000000   0.000000   0.000000   0.008145
   24  O  1 XX    0.000000   0.064663  -0.030162   0.000000
   25  O  1 YY    0.000000  -0.032332   0.015081  -0.010216
   26  O  1 ZZ    0.000000  -0.032332   0.015081   0.010216
   27  O  1 XY   -0.003842   0.000000   0.000000   0.000000
   28  O  1 XZ    0.021583   0.000000   0.000000   0.000000
   29  O  1 YZ    0.000000   0.000000   0.000000  -0.008541
   30  O  1 XX    0.000000   0.861402  -0.324222   0.000000
   31  O  1 YY    0.000000  -0.430701   0.162111   0.399440
   32  O  1 ZZ    0.000000  -0.430701   0.162111  -0.399440
   33  O  1 XY    0.059808   0.000000   0.000000   0.000000
   34  O  1 XZ   -0.335943   0.000000   0.000000   0.000000
   35  O  1 YZ    0.000000   0.000000   0.000000   0.333940
   36  O  1 XXX   0.000000   0.017205  -0.002074   0.000000
   37  O  1 YYY   0.000030   0.000000   0.000000   0.000000
   38  O  1 ZZZ  -0.000167   0.000000   0.000000   0.000000
   39  O  1 XXY  -0.000053   0.000000   0.000000   0.000000
   40  O  1 XXZ   0.000298   0.000000   0.000000   0.000000
   41  O  1 YYX   0.000000  -0.011542   0.001391   0.002615
   42  O  1 YYZ  -0.000075   0.000000   0.000000   0.000000
   43  O  1 ZZX   0.000000  -0.011542   0.001391  -0.002615
   44  O  1 ZZY   0.000013   0.000000   0.000000   0.000000
   45  O  1 XYZ   0.000000   0.000000   0.000000   0.002186
   46  O  2  S    0.000000  -0.020656   0.042293   0.000000
   47  O  2  S    0.000000  -0.037715   0.075540   0.000000
   48  O  2  X    0.000000   0.004258   0.217671   0.000000
   49  O  2  Y    0.020095   0.000000   0.000000   0.000000
   50  O  2  Z   -0.112876   0.000000   0.000000   0.000000
   51  O  2  S    0.000000   0.216338  -0.274662   0.000000
   52  O  2  X    0.000000  -0.034687   0.321560   0.000000
   53  O  2  Y    0.026314   0.000000   0.000000   0.000000
   54  O  2  Z   -0.147804   0.000000   0.000000   0.000000
   55  O  2  S    0.000000  -1.666251  -0.270157   0.000000
   56  O  2  X    0.000000   2.201774   0.637743   0.000000
   57  O  2  Y    0.048553   0.000000   0.000000   0.000000
   58  O  2  Z   -0.272724   0.000000   0.000000   0.000000
   59  O  2  S    0.000000 -26.336387   2.506825   0.000000
   60  O  2  X    0.000000   8.737726  -1.169589   0.000000
   61  O  2  Y   -0.362665   0.000000   0.000000   0.000000
   62  O  2  Z    2.037095   0.000000   0.000000   0.000000
   63  O  2 XX    0.000000   0.005498   0.009446   0.000000
   64  O  2 YY    0.000000  -0.002749  -0.004723   0.009743
   65  O  2 ZZ    0.000000  -0.002749  -0.004723  -0.009743
   66  O  2 XY    0.000614   0.000000   0.000000   0.000000
   67  O  2 XZ   -0.003449   0.000000   0.000000   0.000000
   68  O  2 YZ    0.000000   0.000000   0.000000   0.008145
   69  O  2 XX    0.000000  -0.064663   0.030162   0.000000
   70  O  2 YY    0.000000   0.032332  -0.015081  -0.010216
   71  O  2 ZZ    0.000000   0.032332  -0.015081   0.010216
   72  O  2 XY   -0.003842   0.000000   0.000000   0.000000
   73  O  2 XZ    0.021583   0.000000   0.000000   0.000000
   74  O  2 YZ    0.000000   0.000000   0.000000  -0.008541
   75  O  2 XX    0.000000  -0.861402   0.324222   0.000000
   76  O  2 YY    0.000000   0.430701  -0.162111   0.399440
   77  O  2 ZZ    0.000000   0.430701  -0.162111  -0.399440
   78  O  2 XY    0.059808   0.000000   0.000000   0.000000
   79  O  2 XZ   -0.335943   0.000000   0.000000   0.000000
   80  O  2 YZ    0.000000   0.000000   0.000000   0.333940
   81  O  2 XXX   0.000000   0.017205  -0.002074   0.000000
   82  O  2 YYY  -0.000030   0.000000   0.000000   0.000000
   83  O  2 ZZZ   0.000167   0.000000   0.000000   0.000000
   84  O  2 XXY   0.000053   0.000000   0.000000   0.000000
   85  O  2 XXZ  -0.000298   0.000000   0.000000   0.000000
   86  O  2 YYX   0.000000  -0.011542   0.001391  -0.002615
   87  O  2 YYZ   0.000075   0.000000   0.000000   0.000000
   88  O  2 ZZX   0.000000  -0.011542   0.001391   0.002615
   89  O  2 ZZY  -0.000013   0.000000   0.000000   0.000000
   90  O  2 XYZ   0.000000   0.000000   0.000000  -0.002186

     -------------------------------------------------
     MP2 PROPERTIES...FOR THE FIRST ORDER WAVEFUNCTION
          USING THE RESPONSE (OR RELAXED) DENSITY
     -------------------------------------------------

          -----------------
          ENERGY COMPONENTS
          -----------------

         WAVEFUNCTION NORMALIZATION =       1.0000000000

                ONE ELECTRON ENERGY =    -260.8742646849
                TWO ELECTRON ENERGY =      83.0044875419
           NUCLEAR REPULSION ENERGY =      27.7633676863
                                      ------------------
                       TOTAL ENERGY =    -150.1064094567

 ELECTRON-ELECTRON POTENTIAL ENERGY =      83.0044875419
  NUCLEUS-ELECTRON POTENTIAL ENERGY =    -410.8720042325
   NUCLEUS-NUCLEUS POTENTIAL ENERGY =      27.7633676863
                                      ------------------
             TOTAL POTENTIAL ENERGY =    -300.1041490043
               TOTAL KINETIC ENERGY =     149.9977395476
                 VIRIAL RATIO (V/T) =       2.0007244770

          ---------------------------------------
          MULLIKEN AND LOWDIN POPULATION ANALYSES
          ---------------------------------------

          MULLIKEN SPHERICAL HARMONIC POPULATIONS
       ATOM           S       P       D      F      G      H      I    TOTAL
    1 O             2.01    2.47    0.01   0.00   0.00   0.00   0.00    4.50
    2 O             2.01    2.47    0.01   0.00   0.00   0.00   0.00    4.50

          MULLIKEN SPHERICAL HARMONIC POPULATIONS
       ATOM           S       P       D      F      G      H      I    TOTAL
    1 O             2.01    1.46    0.03   0.00   0.00   0.00   0.00    3.50
    2 O             2.01    1.46    0.03   0.00   0.00   0.00   0.00    3.50

     ATOMIC SPIN POPULATION (ALPHA MINUS BETA)
       ATOM         MULL.POP.                    LOW.POP.
    1 O             1.000000                     1.000000
    2 O             1.000000                     1.000000


          ********* ALL ELECTRONS ********

               ----- POPULATIONS IN EACH AO -----
                             MULLIKEN      LOWDIN
              1  O  1  S      1.08381     1.02775
              2  O  1  S      0.91188     0.92528
              3  O  1  X      0.25577     0.24677
              4  O  1  Y      0.32410     0.32075
              5  O  1  Z      0.32410     0.32075
              6  O  1  S      1.06208     0.39236
              7  O  1  X      0.57226     0.30821
              8  O  1  Y      0.66936     0.35156
              9  O  1  Z      0.66936     0.35156
             10  O  1  S      0.92412     0.27322
             11  O  1  X      0.15778     0.25780
             12  O  1  Y      0.46674     0.29603
             13  O  1  Z      0.46674     0.29603
             14  O  1  S      0.03631     0.08275
             15  O  1  X     -0.01430     0.06233
             16  O  1  Y      0.02191     0.05832
             17  O  1  Z      0.02191     0.05832
             18  O  1 XX      0.00106     0.12972
             19  O  1 YY      0.00156     0.13064
             20  O  1 ZZ      0.00112     0.13064
             21  O  1 XY      0.00112     0.00131
             22  O  1 XZ      0.00080     0.00131
             23  O  1 YZ      0.00000     0.00093
             24  O  1 XX      0.00693     0.17911
             25  O  1 YY      0.01406     0.17009
             26  O  1 ZZ      0.01586     0.17009
             27  O  1 XY      0.01586     0.01738
             28  O  1 XZ      0.00337     0.01738
             29  O  1 YZ      0.00000     0.00309
             30  O  1 XX     -0.00391     0.12662
             31  O  1 YY     -0.01316     0.01650
             32  O  1 ZZ     -0.00291     0.01650
             33  O  1 XY     -0.00291     0.06981
             34  O  1 XZ      0.00071     0.06981
             35  O  1 YZ      0.00000     0.00086
             36  O  1 XXX     0.00118     0.20737
             37  O  1 YYY     0.00122     0.19720
             38  O  1 ZZZ     0.00085     0.19720
             39  O  1 XXY     0.00085     0.09693
             40  O  1 XXZ     0.00038     0.09693
             41  O  1 YYX     0.00036     0.07227
             42  O  1 YYZ     0.00169     0.08896
             43  O  1 ZZX     0.00000     0.07227
             44  O  1 ZZY     0.00000     0.08896
             45  O  1 XYZ     0.00000     0.00036
             46  O  2  S      1.08381     1.02775
             47  O  2  S      0.91188     0.92528
             48  O  2  X      0.25577     0.24677
             49  O  2  Y      0.32410     0.32075
             50  O  2  Z      0.32410     0.32075
             51  O  2  S      1.06208     0.39236
             52  O  2  X      0.57226     0.30821
             53  O  2  Y      0.66936     0.35156
             54  O  2  Z      0.66936     0.35156
             55  O  2  S      0.92412     0.27322
             56  O  2  X      0.15778     0.25780
             57  O  2  Y      0.46674     0.29603
             58  O  2  Z      0.46674     0.29603
             59  O  2  S      0.03631     0.08275
             60  O  2  X     -0.01430     0.06233
             61  O  2  Y      0.02191     0.05832
             62  O  2  Z      0.02191     0.05832
             63  O  2 XX      0.00106     0.12972
             64  O  2 YY      0.00156     0.13064
             65  O  2 ZZ      0.00112     0.13064
             66  O  2 XY      0.00112     0.00131
             67  O  2 XZ      0.00080     0.00131
             68  O  2 YZ      0.00000     0.00093
             69  O  2 XX      0.00693     0.17911
             70  O  2 YY      0.01406     0.17009
             71  O  2 ZZ      0.01586     0.17009
             72  O  2 XY      0.01586     0.01738
             73  O  2 XZ      0.00337     0.01738
             74  O  2 YZ      0.00000     0.00309
             75  O  2 XX     -0.00391     0.12662
             76  O  2 YY     -0.01316     0.01650
             77  O  2 ZZ     -0.00291     0.01650
             78  O  2 XY     -0.00291     0.06981
             79  O  2 XZ      0.00071     0.06981
             80  O  2 YZ      0.00000     0.00086
             81  O  2 XXX     0.00118     0.20737
             82  O  2 YYY     0.00122     0.19720
             83  O  2 ZZZ     0.00085     0.19720
             84  O  2 XXY     0.00085     0.09693
             85  O  2 XXZ     0.00038     0.09693
             86  O  2 YYX     0.00036     0.07227
             87  O  2 YYZ     0.00169     0.08896
             88  O  2 ZZX     0.00000     0.07227
             89  O  2 ZZY     0.00000     0.08896
             90  O  2 XYZ     0.00000     0.00036

          ----- MULLIKEN ATOMIC OVERLAP POPULATIONS -----
          (OFF-DIAGONAL ELEMENTS NEED TO BE MULTIPLIED BY 2)

             1           2

    1    8.6209794
    2   -0.6209794   8.6209794

          TOTAL MULLIKEN AND LOWDIN ATOMIC POPULATIONS
       ATOM         MULL.POP.    CHARGE          LOW.POP.     CHARGE
    1 O             8.000000    0.000000         8.000000    0.000000
    2 O             8.000000    0.000000         8.000000    0.000000

          MULLIKEN SPHERICAL HARMONIC POPULATIONS
       ATOM           S       P       D      F      G      H      I    TOTAL
    1 O             4.02    3.94    0.04   0.01   0.00   0.00   0.00    8.00
    2 O             4.02    3.94    0.04   0.01   0.00   0.00   0.00    8.00

          -------------------------------
          BOND ORDER AND VALENCE ANALYSIS     BOND ORDER THRESHOLD=0.050
          -------------------------------

                   BOND                       BOND                       BOND
  ATOM PAIR DIST  ORDER      ATOM PAIR DIST  ORDER      ATOM PAIR DIST  ORDER
    1   2  1.220  1.161

                       TOTAL       BONDED        FREE
      ATOM            VALENCE     VALENCE     VALENCE
    1 O                 2.093       1.161       0.932
    2 O                 2.093       1.161       0.932

          -----------------------------------------
          ATOMIC SPIN DENSITY AT THE NUCLEUS (A.U.)
          -----------------------------------------
                            SPIN DENS    ALPHA DENS     BETA DENS
    1  O            8.0     0.0892401     148.04562     147.95638
    2  O            8.0     0.0892401     148.04562     147.95638

          ---------------------
          ELECTROSTATIC MOMENTS
          ---------------------

 POINT   1           X           Y           Z (BOHR)    CHARGE
                 0.000000    0.000000    0.000000        0.00 (A.U.)
         DX          DY          DZ         /D/  (DEBYE)
     0.000000    0.000000    0.000000    0.000000
 ...... END OF PROPERTY EVALUATION ......
 STEP CPU TIME =     0.34 TOTAL CPU TIME =     1176.7 (   19.6 MIN)
 TOTAL WALL CLOCK TIME=     1256.0 SECONDS, CPU UTILIZATION IS  93.69%
  $VIB   
          IVIB=   0 IATOM=   0 ICOORD=   0 E=     -150.1064094567
 -1.156455798E-06 0.000000000E+00 0.000000000E+00 1.156455743E-06 0.000000000E+00
  0.000000000E+00
 -2.257541709E-14 0.000000000E+00 2.753585579E-34
 ......END OF GEOMETRY SEARCH......
 STEP CPU TIME =     0.00 TOTAL CPU TIME =     1176.7 (   19.6 MIN)
 TOTAL WALL CLOCK TIME=     1256.0 SECONDS, CPU UTILIZATION IS  93.69%
 6098404 WORDS OF DYNAMIC MEMORY USED
 EXECUTION OF GAMESS TERMINATED NORMALLY Sat Mar 28 15:31:38 2009
 DDI: 262808 bytes (0.3 MB / 0 MWords) used by master data server.

 ----------------------------------------
 CPU timing information for all processes
 ========================================
 0: 1170.848000 + 5.904000 = 1176.752000
 ----------------------------------------
 ddikick.x: exited gracefully.
