 *******************************************************************************
 **                            MOPAC2002 (c) Fujitsu                          **
 *******************************************************************************

                              AM1 CALCULATION RESULTS


 *******************************************************************************
 *              MOPAC2002 Version 2.20CAChe    CALC.'D. Tue Jun  1 05:55:28 2004
 *                                           Microsoft(R) Windows 95/98/NT/2000.
 *  AM1      - THE AM1 HAMILTONIAN TO BE USED
 *  NOMM     - DO NOT MAKE MM CORRECTION TO CONH BARRIER
 *  PRECISE  - CRITERIA TO BE INCREASED BY 100 TIMES
 *  NODIIS   - DO NOT USE GDIIS GEOMETRY OPTIMIZER
 *  T=       - A TIME OF    10.0 DAYS    REQUESTED
 *  DUMP=N   - RESTART FILE WRITTEN EVERY  7200.000 SECONDS
 *  NOXYZ    - CARTESIAN COORDINATES NOT TO BE PRINTED
 *  GRAPH    - GENERATE FILE FOR GRAPHICS
 *******************************************************************************
 AM1 NOMM NOXYZ PRECISE NODIIS GRAPH T=10D
 Optimize geometry
 CAChe_MOPAC_coordinate_shift:     -2.248307       -1.009106       -0.715378
  ATOM    CHEMICAL     BOND LENGTH    BOND ANGLE    TWIST ANGLE 
 NUMBER    SYMBOL      (ANGSTROMS)    (DEGREES)     (DEGREES) 
   (I)                   NA:I          NB:NA:I       NC:NB:NA:I       NA    NB    NC 
    1       C(  1)        0.000000      0.000000       0.000000                      
    2      XX(   )        4.214131      0.000000       0.000000        1             
    3      XX(   )        3.664126     90.000000       0.000000        2     1       
    4       C(  2)        1.503136  *  42.988765  *    0.900741  *     1     2     3 
    5       C(  3)        1.541538  * 115.548980  *  -64.206544  *     4     1     2 
    6       O(  4)        1.416315  * 105.874300  *   61.991013  *     5     4     1 
    7       O(  5)        1.214191  * 122.257548  * -178.769818  *     4     1     5 
    8       C(  6)        1.524467  * 113.282853  *  123.427744  *     5     4     6 
    9       H(  7)        1.098809  *  67.062794  * -179.779586  *     1     2     4 
   10       H(  8)        1.097787  * 124.585777  *   96.102231  *     1     2     9 
   11       H(  9)        1.097692  * 126.745951  *  168.326780  *     1     2    10 
   12       H( 10)        1.119138  * 107.157497  *  120.795247  *     5     4     8 
   13       H( 11)        0.948008  * 106.567158  *  172.770112  *     6     5     4 
   14       H( 12)        1.098189  * 111.973739  *  -62.297295  *     8     5     4 
   15       H( 13)        1.097315  * 110.762725  *  119.838457  *     8     5    14 
   16       H( 14)        1.098543  * 111.443550  *  119.637905  *     8     5    15 


          CARTESIAN COORDINATES 

    NO.       ATOM           X             Y             Z

     1         C        0.00000000    0.00000000    0.00000000
     2         C        1.09952507    1.02479405   -0.01611201
     3         C        1.99848901    1.05512206    1.23579991
     4         O        2.62244578   -0.21493952    1.29554691
     5         O        1.25545608    1.79345202   -0.94299401
     6         C        3.01034787    2.19529387    1.22357190
     7         H        0.42823010   -1.01173522    0.01980001
     8         H       -0.62314715    0.11364003    0.89661021
     9         H       -0.65671397    0.06824299   -0.87692496
    10         H        1.32525320    1.16420705    2.12311264
    11         H        3.26180059   -0.16942054    1.99402570
    12         H        3.71413072    2.11114087    0.38474709
    13         H        2.50359710    3.16412543    1.13046293
    14         H        3.60029810    2.21864390    2.14996827


      RHF CALCULATION, NO. OF DOUBLY OCCUPIED LEVELS =   18
 
    Memory needed:      213596 bytes
 Memory available:  1048576000 bytes
 
  H: (AM1): M.J.S. DEWAR ET AL, J. AM. CHEM. SOC. 107 3902-3909 (1985)          
  C: (AM1): M.J.S. DEWAR ET AL, J. AM. CHEM. SOC. 107 3902-3909 (1985)          
  O: (AM1): M.J.S. DEWAR ET AL, J. AM. CHEM. SOC. 107 3902-3909 (1985)          

           EMPIRICAL FORMULA: C4 H8 O2



      MOLECULAR POINT GROUP   :   C1  

          DIAGONAL MATRIX USED AS START HESSIAN

 CYCLE:   1 TIME:   0.030 TIME LEFT:  1.43W  GRAD.:    68.542 HEAT:-94.00551    
 CYCLE:   2 TIME:   0.150 TIME LEFT:  1.43W  GRAD.:    63.420 HEAT:-95.32099    
 CYCLE:   3 TIME:   0.170 TIME LEFT:  1.43W  GRAD.:    19.676 HEAT:-96.14923    
 CYCLE:   4 TIME:   0.160 TIME LEFT:  1.43W  GRAD.:     3.937 HEAT:-96.31319    
 CYCLE:   5 TIME:   0.150 TIME LEFT:  1.43W  GRAD.:     3.154 HEAT:-96.35538    
 CYCLE:   6 TIME:   0.190 TIME LEFT:  1.43W  GRAD.:     4.027 HEAT:-96.43741    
 CYCLE:   7 TIME:   0.170 TIME LEFT:  1.43W  GRAD.:     3.750 HEAT:-96.47794    
 CYCLE:   8 TIME:   0.030 TIME LEFT:  1.43W  GRAD.:     4.893 HEAT:-96.56201    
 CYCLE:   9 TIME:   0.160 TIME LEFT:  1.43W  GRAD.:     6.535 HEAT:-96.67242    
 CYCLE:  10 TIME:   0.180 TIME LEFT:  1.43W  GRAD.:     7.089 HEAT:-96.83012    
 CYCLE:  11 TIME:   0.180 TIME LEFT:  1.43W  GRAD.:     5.627 HEAT:-96.97637    
 CYCLE:  12 TIME:   0.180 TIME LEFT:  1.43W  GRAD.:     4.915 HEAT:-97.07280    
 CYCLE:  13 TIME:   0.160 TIME LEFT:  1.43W  GRAD.:     4.273 HEAT:-97.13430    
 CYCLE:  14 TIME:   0.180 TIME LEFT:  1.43W  GRAD.:     2.552 HEAT:-97.18318    
 CYCLE:  15 TIME:   0.180 TIME LEFT:  1.43W  GRAD.:     2.206 HEAT:-97.20084    
 CYCLE:  16 TIME:   0.020 TIME LEFT:  1.43W  GRAD.:     2.076 HEAT:-97.21911    
 CYCLE:  17 TIME:   0.030 TIME LEFT:  1.43W  GRAD.:     2.635 HEAT:-97.25303    
 CYCLE:  18 TIME:   0.180 TIME LEFT:  1.43W  GRAD.:     2.341 HEAT:-97.27047    
 CYCLE:  19 TIME:   0.180 TIME LEFT:  1.43W  GRAD.:     1.826 HEAT:-97.29074    
 CYCLE:  20 TIME:   0.200 TIME LEFT:  1.43W  GRAD.:     1.977 HEAT:-97.30684    
 CYCLE:  21 TIME:   0.180 TIME LEFT:  1.43W  GRAD.:     2.337 HEAT:-97.32757    
 CYCLE:  22 TIME:   0.190 TIME LEFT:  1.43W  GRAD.:     1.930 HEAT:-97.34262    
 CYCLE:  23 TIME:   0.190 TIME LEFT:  1.43W  GRAD.:     1.037 HEAT:-97.35137    
 CYCLE:  24 TIME:   0.170 TIME LEFT:  1.43W  GRAD.:     0.629 HEAT:-97.35466    
 CYCLE:  25 TIME:   0.160 TIME LEFT:  1.43W  GRAD.:     0.567 HEAT:-97.35616    
 CYCLE:  26 TIME:   0.160 TIME LEFT:  1.43W  GRAD.:     0.549 HEAT:-97.35733    
 CYCLE:  27 TIME:   0.190 TIME LEFT:  1.43W  GRAD.:     0.438 HEAT:-97.35839    
 CYCLE:  28 TIME:   0.180 TIME LEFT:  1.43W  GRAD.:     0.485 HEAT:-97.35934    
 CYCLE:  29 TIME:   0.170 TIME LEFT:  1.43W  GRAD.:     0.568 HEAT:-97.36034    
 CYCLE:  30 TIME:   0.160 TIME LEFT:  1.43W  GRAD.:     0.619 HEAT:-97.36178    
 CYCLE:  31 TIME:   0.180 TIME LEFT:  1.43W  GRAD.:     0.657 HEAT:-97.36413    
 CYCLE:  32 TIME:   0.170 TIME LEFT:  1.43W  GRAD.:     0.586 HEAT:-97.36601    
 CYCLE:  33 TIME:   0.150 TIME LEFT:  1.43W  GRAD.:     0.359 HEAT:-97.36704    
 CYCLE:  34 TIME:   0.170 TIME LEFT:  1.43W  GRAD.:     0.160 HEAT:-97.36756    
 CYCLE:  35 TIME:   0.160 TIME LEFT:  1.43W  GRAD.:     0.113 HEAT:-97.36765    
 CYCLE:  36 TIME:   0.030 TIME LEFT:  1.43W  GRAD.:     0.071 HEAT:-97.36769    
 CYCLE:  37 TIME:   0.190 TIME LEFT:  1.43W  GRAD.:     0.098 HEAT:-97.36770    
 CYCLE:  38 TIME:   0.160 TIME LEFT:  1.43W  GRAD.:     0.044 HEAT:-97.36772    

     RMS GRADIENT =  0.04369  IS LESS THAN CUTOFF =  0.05000



 -------------------------------------------------------------------------------
 AM1 NOMM NOXYZ PRECISE NODIIS GRAPH T=10D
 Optimize geometry
 CAChe_MOPAC_coordinate_shift:     -2.248307       -1.009106       -0.715378


     GEOMETRY OPTIMISED USING EIGENVECTOR FOLLOWING (EF).     
     SCF FIELD WAS ACHIEVED                                   


                                  AM1  CALCULATION
                                                       MOPAC2002 Version 2.20
                                                       Tue Jun  1 05:55:39 2004  




          FINAL HEAT OF FORMATION =        -97.36772 KCAL =       -407.38654 KJ


          TOTAL ENERGY            =      -1263.73817 EV
          ELECTRONIC ENERGY       =      -4557.63761 EV  POINT GROUP:     C1  
          CORE-CORE REPULSION     =       3293.89943 EV

          IONIZATION POTENTIAL    =         10.52881
          NO. OF FILLED LEVELS    =        18
          MOLECULAR WEIGHT        =     88.106

          MOLECULAR DIMENSIONS (Angstroms)

            Atom       Atom       Distance
            H    14    H     9     5.47617
            O     5    H    11     3.59568
            H    12    H    10     3.07736


          SCF CALCULATIONS =               39
          COMPUTATION TIME =           5.94 SECONDS
          WALL CLOCK TIME  =             11 SECONDS




  ATOM    CHEMICAL     BOND LENGTH    BOND ANGLE    TWIST ANGLE 
 NUMBER    SYMBOL      (ANGSTROMS)    (DEGREES)     (DEGREES) 
   (I)                   NA:I          NB:NA:I       NC:NB:NA:I       NA    NB    NC 
    1       C(  1)        0.000000      0.000000       0.000000                      
    2      XX(   )        4.214131      0.000000       0.000000        1             
    3      XX(   )        3.664126     90.000000       0.000000        2     1       
    4       C(  2)        1.489171  *  43.569804  *    0.403287  *     1     2     3 
    5       C(  3)        1.522838  * 116.958623  *  -60.827170  *     4     1     2 
    6       O(  4)        1.422380  * 107.916734  *   -2.956727  *     5     4     1 
    7       O(  5)        1.234923  * 123.286561  * -179.391935  *     4     1     5 
    8       C(  6)        1.517602  * 110.647607  *  122.411424  *     5     4     6 
    9       H(  7)        1.118153  *  65.754997  * -178.096744  *     1     2     4 
   10       H(  8)        1.118549  * 124.069372  *   95.813901  *     1     2     9 
   11       H(  9)        1.116059  * 125.140043  *  166.455491  *     1     2    10 
   12       H( 10)        1.129285  * 107.893566  *  120.192024  *     5     4     8 
   13       H( 11)        0.964643  * 106.604205  *  171.647346  *     6     5     4 
   14       H( 12)        1.116214  * 110.413575  *  -67.842362  *     8     5     4 
   15       H( 13)        1.116768  * 109.606320  *  120.124630  *     8     5    14 
   16       H( 14)        1.116114  * 110.146169  *  119.963702  *     8     5    15 


      MOLECULAR POINT GROUP   :   C1  


                  EIGENVALUES

 -40.11078 -37.96235 -31.94844 -30.74222 -24.99879 -20.42612 -18.46963 -17.09802
 -16.52786 -15.38524 -14.81530 -14.10922 -13.73057 -13.01671 -12.90758 -12.77534
 -11.48177 -10.52881   0.80576   2.79095   3.26265   3.54119   3.74577   4.07314
   4.21780   4.27624   4.36663   4.55238   4.64982   4.88318   5.81570   6.45085


              NET ATOMIC CHARGES AND DIPOLE CONTRIBUTIONS

  ATOM NO.   TYPE          CHARGE      No. of ELECS.   s-Pop       p-Pop       
    1          C          -0.255402        4.2554     1.22875     3.02665
    2          C           0.237148        3.7629     1.24735     2.51551
    3          C          -0.025721        4.0257     1.22925     2.79647
    4          O          -0.328153        6.3282     1.87241     4.45574
    5          O          -0.296738        6.2967     1.91217     4.38457
    6          C          -0.244767        4.2448     1.23246     3.01231
    7          H           0.111831        0.8882     0.88817
    8          H           0.115343        0.8847     0.88466
    9          H           0.101396        0.8986     0.89860
   10          H           0.100495        0.8995     0.89951
   11          H           0.207598        0.7924     0.79240
   12          H           0.090107        0.9099     0.90989
   13          H           0.108199        0.8918     0.89180
   14          H           0.078665        0.9213     0.92133
 DIPOLE           X         Y         Z       TOTAL
 POINT-CHG.     0.521    -1.051     1.340     1.781
 HYBRID         0.570    -0.048     0.570     0.807
 SUM            1.091    -1.099     1.910     2.459


          ATOMIC ORBITAL ELECTRON POPULATIONS

   1.22875   0.98779   0.99621   1.04266   1.24735   0.84152   0.82980   0.84419
   1.22925   0.94661   0.93079   0.91907   1.87241   1.45927   1.59427   1.40221
   1.91217   1.69330   1.33577   1.35550   1.23246   0.94196   1.03997   1.03037
   0.88817   0.88466   0.89860   0.89951   0.79240   0.90989   0.89180   0.92133

           DATA FOR GRAPH WRITTEN TO DISK
 *******************************************************************************
 **                            MOPAC2002 (c) Fujitsu                          **
 *******************************************************************************

                              AM1 CALCULATION RESULTS


 *******************************************************************************
 *              MOPAC2002 Version 2.20CAChe    CALC.'D. Tue Jun  1 05:55:40 2004
 *                                           Microsoft(R) Windows 95/98/NT/2000.
 *  AM1      - THE AM1 HAMILTONIAN TO BE USED
 *  NOMM     - DO NOT MAKE MM CORRECTION TO CONH BARRIER
 *  POLAR    - CALCULATE FIRST, SECOND AND THIRD-ORDER POLARIZABILITIES
 *  LET      - OVERRIDE SOME SAFETY CHECKS
 *  NODIIS   - DO NOT USE GDIIS GEOMETRY OPTIMIZER
 *  FORCE    - FORCE CALCULATION SPECIFIED
 *  T=       - A TIME OF    24.0 HOURS   REQUESTED
 *  DUMP=N   - RESTART FILE WRITTEN EVERY  7200.000 SECONDS
 *  ISOTOPE  - FORCE MATRIX WRITTEN TO DISK (CHAN. 9 )
 *  DENOUT   - DENSITY MATRIX OUTPUT ON CHANNEL 10
 *  BONDS    - FINAL BOND-ORDER MATRIX TO BE PRINTED
 *  GRAPH    - GENERATE FILE FOR GRAPHICS
 *  MULLIK   - THE MULLIKEN ANALYSIS TO BE PERFORMED
 *  THERMO   - THERMODYNAMIC QUANTITIES TO BE CALCULATED
 *******************************************************************************
 FORCE AM1 NOMM MULLIK POLAR BONDS DENOUT ISOTOPE NODIIS GRAPH +
 THERMO(200,500,50) T=24H LET
 Vibrational spectrum
 
  ATOM    CHEMICAL     BOND LENGTH    BOND ANGLE    TWIST ANGLE 
 NUMBER    SYMBOL      (ANGSTROMS)    (DEGREES)     (DEGREES) 
   (I)                   NA:I          NB:NA:I       NC:NB:NA:I       NA    NB    NC 
    1       C(  1)        0.000000      0.000000       0.000000                      
    2       C(  2)        1.489171  *   0.000000       0.000000        1             
    3       C(  3)        1.522837  * 116.958658  *    0.000000        2     1       
    4       O(  4)        1.422380  * 107.916692  *   -2.956734  *     3     2     1 
    5       O(  5)        1.234923  * 123.286521  * -179.391939  *     2     1     3 
    6       C(  6)        1.517601  * 110.647625  *  122.411431  *     3     2     4 
    7       H(  7)        1.118154  * 109.303724  *  -58.988415  *     1     2     3 
    8       H(  8)        1.118549  * 109.221117  *  117.781811  *     1     2     7 
    9       H(  9)        1.116059  * 111.087971  *  121.061327  *     1     2     8 
   10       H( 10)        1.129286  * 107.893572  *  120.192044  *     3     2     6 
   11       H( 11)        0.964644  * 106.604185  *  171.647361  *     4     3     2 
   12       H( 12)        1.116213  * 110.413599  *  -67.842349  *     6     3     2 
   13       H( 13)        1.116768  * 109.606326  *  120.124610  *     6     3    12 
   14       H( 14)        1.116114  * 110.146198  *  119.963702  *     6     3    13 


          CARTESIAN COORDINATES 

    NO.       ATOM           X             Y             Z

     1         C        0.00000000    0.00000000    0.00000000
     2         C        1.48917100    0.00000000    0.00000000
     3         C        2.17954530    1.35735620    0.00000000
     4         O        1.17319093    2.36012346   -0.06981094
     5         O        2.16692907   -1.03225907   -0.01095543
     6         C        3.04458701    1.51775779    1.23656257
     7         H       -0.36963458    0.54369782    0.90445084
     8         H       -0.36824276    0.54724197   -0.90336889
     9         H       -0.40155907   -1.04131217   -0.00264032
    10         H        2.82089105    1.42043075   -0.92735328
    11         H        1.61697464    3.20590379    0.06528053
    12         H        2.40815301    1.58126416    2.15135772
    13         H        3.73050568    0.64145911    1.33030130
    14         H        3.65341367    2.45017578    1.16148086


      RHF CALCULATION, NO. OF DOUBLY OCCUPIED LEVELS =   18
 
    Memory needed:      313268 bytes
 Memory available:  1048576000 bytes
 
  H: (AM1): M.J.S. DEWAR ET AL, J. AM. CHEM. SOC. 107 3902-3909 (1985)          
  C: (AM1): M.J.S. DEWAR ET AL, J. AM. CHEM. SOC. 107 3902-3909 (1985)          
  O: (AM1): M.J.S. DEWAR ET AL, J. AM. CHEM. SOC. 107 3902-3909 (1985)          

           EMPIRICAL FORMULA: C4 H8 O2



      MOLECULAR POINT GROUP   :   C1  


          HEAT OF FORMATION =  -97.367719 KCALS/MOLE


          CARTESIAN COORDINATE DERIVATIVES

   NUMBER  ATOM     X            Y            Z

     1       C    -0.008814    -0.024285     0.028313
     2       C    -0.007333     0.037001     0.028071
     3       C    -0.003953    -0.016316    -0.027031
     4       O     0.002150     0.001519    -0.009794
     5       O    -0.000521    -0.009090     0.000979
     6       C    -0.013066     0.014961    -0.008249
     7       H     0.007523     0.003254    -0.000445
     8       H     0.003641    -0.004046    -0.006942
     9       H    -0.004760     0.007416    -0.018814
    10       H     0.014159     0.009369    -0.001756
    11       H     0.000843    -0.003192     0.008330
    12       H     0.005305    -0.019730     0.002714
    13       H     0.002546     0.004666     0.002625
    14       H     0.002279    -0.001526     0.002000


          GRADIENT NORM =   0.08223


          TIME FOR SCF CALCULATION =    0.12

          TIME FOR DERIVATIVES     =    0.10

          MOLECULAR WEIGHT =   88.11



          ROTATIONAL CONSTANTS IN CM(-1)

          A =      0.158094   B =      0.108486   C =      0.072937



          PRINCIPAL MOMENTS OF INERTIA IN UNITS OF 10**(-40)*GRAM-CM**2

          A =    177.063936   B =    258.031270   C =    383.796233


          ORIENTATION OF MOLECULE IN FORCE CALCULATION

    NO.       ATOM           X           Y           Z

     1          C      -1.671479   -0.740026   -0.197143
     2          C      -0.182308   -0.740026   -0.197143
     3          C       0.508066    0.617330   -0.197143
     4          O      -0.498288    1.620097   -0.266954
     5          O       0.495450   -1.772285   -0.208099
     6          C       1.373108    0.777732    1.039419
     7          H      -2.041113   -0.196328    0.707308
     8          H      -2.039722   -0.192784   -1.100512
     9          H      -2.073038   -1.781338   -0.199784
    10          H       1.149412    0.680405   -1.124497
    11          H      -0.054504    2.465878   -0.131863
    12          H       0.736674    0.841238    1.954214
    13          H       2.059027   -0.098567    1.133158
    14          H       1.981935    1.710150    0.964338


    FIRST DERIVATIVES WILL BE USED IN THE CALCULATION OF SECOND DERIVATIVES

          ESTIMATED TIME TO COMPLETE CALCULATION =      18.51 SECONDS

    FOR POINT-GROUP C1   THERE ARE   1 UNIQUE SYMMETRY FUNCTIONS.

There are   42 symmetry independent variables
 STEP:   1 TIME =     0.02 SECS, INTEGRAL =      0.02 TIME LEFT:  86399.76
 STEP:   2 TIME =     0.25 SECS, INTEGRAL =      0.27 TIME LEFT:  86399.51
 STEP:   3 TIME =     0.30 SECS, INTEGRAL =      0.57 TIME LEFT:  86399.21
 STEP:   4 TIME =     0.03 SECS, INTEGRAL =      0.60 TIME LEFT:  86399.18
 STEP:   5 TIME =     0.24 SECS, INTEGRAL =      0.84 TIME LEFT:  86398.94
 STEP:   6 TIME =     0.27 SECS, INTEGRAL =      1.11 TIME LEFT:  86398.67
 STEP:   7 TIME =     0.28 SECS, INTEGRAL =      1.39 TIME LEFT:  86398.39
 STEP:   8 TIME =     0.25 SECS, INTEGRAL =      1.64 TIME LEFT:  86398.14
 STEP:   9 TIME =     0.30 SECS, INTEGRAL =      1.94 TIME LEFT:  86397.84
 STEP:  10 TIME =     0.30 SECS, INTEGRAL =      2.24 TIME LEFT:  86397.54
 STEP:  11 TIME =     0.24 SECS, INTEGRAL =      2.48 TIME LEFT:  86397.30
 STEP:  12 TIME =     0.28 SECS, INTEGRAL =      2.76 TIME LEFT:  86397.02
 STEP:  13 TIME =     0.09 SECS, INTEGRAL =      2.85 TIME LEFT:  86396.93
 STEP:  14 TIME =     0.24 SECS, INTEGRAL =      3.09 TIME LEFT:  86396.69
 STEP:  15 TIME =     0.30 SECS, INTEGRAL =      3.39 TIME LEFT:  86396.38
 STEP:  16 TIME =     0.28 SECS, INTEGRAL =      3.68 TIME LEFT:  86396.10
 STEP:  17 TIME =     0.26 SECS, INTEGRAL =      3.94 TIME LEFT:  86395.84
 STEP:  18 TIME =     0.03 SECS, INTEGRAL =      3.97 TIME LEFT:  86395.81
 STEP:  19 TIME =     0.30 SECS, INTEGRAL =      4.27 TIME LEFT:  86395.51
 STEP:  20 TIME =     0.25 SECS, INTEGRAL =      4.52 TIME LEFT:  86395.26
 STEP:  21 TIME =     0.28 SECS, INTEGRAL =      4.80 TIME LEFT:  86394.98
 STEP:  22 TIME =     0.03 SECS, INTEGRAL =      4.83 TIME LEFT:  86394.95
 STEP:  23 TIME =     0.29 SECS, INTEGRAL =      5.12 TIME LEFT:  86394.66
 STEP:  24 TIME =     0.26 SECS, INTEGRAL =      5.38 TIME LEFT:  86394.40
 STEP:  25 TIME =     0.27 SECS, INTEGRAL =      5.65 TIME LEFT:  86394.13
 STEP:  26 TIME =     0.05 SECS, INTEGRAL =      5.70 TIME LEFT:  86394.08
 STEP:  27 TIME =     0.02 SECS, INTEGRAL =      5.72 TIME LEFT:  86394.06
 STEP:  28 TIME =     0.03 SECS, INTEGRAL =      5.75 TIME LEFT:  86394.03
 STEP:  29 TIME =     0.26 SECS, INTEGRAL =      6.01 TIME LEFT:  86393.77
 STEP:  30 TIME =     0.28 SECS, INTEGRAL =      6.29 TIME LEFT:  86393.49
 STEP:  31 TIME =     0.27 SECS, INTEGRAL =      6.56 TIME LEFT:  86393.22
 STEP:  32 TIME =     0.25 SECS, INTEGRAL =      6.81 TIME LEFT:  86392.97
 STEP:  33 TIME =     0.13 SECS, INTEGRAL =      6.94 TIME LEFT:  86392.84
 STEP:  34 TIME =     0.10 SECS, INTEGRAL =      7.04 TIME LEFT:  86392.74
 STEP:  35 TIME =     0.19 SECS, INTEGRAL =      7.23 TIME LEFT:  86392.55
 STEP:  36 TIME =     0.24 SECS, INTEGRAL =      7.47 TIME LEFT:  86392.31
 STEP:  37 TIME =     0.27 SECS, INTEGRAL =      7.74 TIME LEFT:  86392.04
 STEP:  38 TIME =     0.02 SECS, INTEGRAL =      7.76 TIME LEFT:  86392.02
 STEP:  39 TIME =     0.24 SECS, INTEGRAL =      8.00 TIME LEFT:  86391.78
 STEP:  40 TIME =     0.29 SECS, INTEGRAL =      8.29 TIME LEFT:  86391.49
 STEP:  41 TIME =     0.13 SECS, INTEGRAL =      8.42 TIME LEFT:  86391.36
 STEP:  42 TIME =     0.23 SECS, INTEGRAL =      8.65 TIME LEFT:  86391.13


           FORCE MATRIX IN MILLIDYNES/ANGSTROM


                 C   1      C   2      C   3      O   4      O   5      C   6
 ------------------------------------------------------------------------------
     C    1  14.484184
     C    2   4.700779  21.871514
     C    3   0.694195   3.798081  15.774772
     O    4   0.136354   1.131475   5.913477  12.116273
     O    5   1.454848  15.300877   1.440337   0.155060  17.512383
     C    6   0.048718   0.822834   4.156895   1.138089   0.051697  14.490498
     H    7   4.531873   0.669558   0.032086   0.020742   0.083231   0.006891
     H    8   4.524700   0.671111   0.033191   0.026631   0.082469   0.007376
     H    9   4.589609   0.688625   0.059849   0.008496   0.017604   0.007222
     H   10   0.044890   0.625255   4.173913   0.948923   0.047953   0.613743
     H   11   0.009737   0.127344   1.005502   6.666100   0.032993   0.074144
     H   12   0.003125   0.014870   0.650394   0.017120   0.005479   4.581702
     H   13   0.005215   0.053577   0.606863   0.095610   0.021764   4.583859
     H   14   0.011141   0.063885   0.652727   0.007886   0.012655   4.574952


                 H   7      H   8      H   9      H  10      H  11      H  12
 ------------------------------------------------------------------------------
     H    7   5.398291
     H    8   0.565438   5.390488
     H    9   0.536067   0.535707   5.451914
     H   10   0.006250   0.005289   0.007491   5.242620
     H   11   0.004827   0.004962   0.002276   0.044699   6.933101
     H   12   0.001580   0.000589   0.000542   0.056512   0.008334   5.438095
     H   13   0.000958   0.001072   0.000981   0.009617   0.009073   0.548109
     H   14   0.001505   0.001534   0.001994   0.011652   0.019159   0.557766


                 H  13      H  14
 ------------------------------
     H   13   5.433865
     H   14   0.549671   5.436153


          HEAT OF FORMATION =  -97.367719 KCALS/MOLE

          ZERO POINT ENERGY      74.203 KCAL/MOL

           (To print the trivial frequences, add keyword `LARGE')


                     NORMAL COORDINATE ANALYSIS (Energies in cm**(-1))


   Root No.     1       2       3       4       5       6       7       8

              1A      2A      3A      4A      5A      6A      7A      8A   

               21.2   119.8   152.9   226.5   257.1   312.8   435.6   502.9
  
          1 -0.0062  0.0011  0.0007 -0.0006  0.0098  0.0298  0.0156 -0.0022
          2 -0.0047  0.0017 -0.0086 -0.0068  0.0449  0.0656 -0.0191  0.0298
          3 -0.0751  0.0014 -0.0028  0.0127 -0.0146  0.0131  0.0043 -0.0017
          4 -0.0061  0.0009  0.0005 -0.0010  0.0122  0.0278  0.0153 -0.0090
          5  0.0016  0.0009 -0.0011  0.0056 -0.0152 -0.0013 -0.0137 -0.0546
          6  0.0032 -0.0020 -0.0013 -0.0003  0.0127 -0.0278 -0.0447  0.0425
          7 -0.0125 -0.0001 -0.0030 -0.0033  0.0153  0.0054  0.0100 -0.0551
          8  0.0047  0.0014  0.0008  0.0080 -0.0157  0.0084 -0.0060 -0.0324
          9 -0.0061  0.0031  0.0047 -0.0094  0.0249 -0.0349 -0.0479  0.0094
         10 -0.0203 -0.0018 -0.0049  0.0058 -0.0194 -0.0397  0.0341  0.0150
         11  0.0014  0.0002 -0.0005  0.0133 -0.0475 -0.0302  0.0344  0.0424
         12  0.0542  0.0098  0.0100 -0.0551  0.0034  0.0103  0.0525  0.0043
         13 -0.0019  0.0012  0.0050  0.0070 -0.0277  0.0191 -0.0251  0.0603
         14  0.0035  0.0013  0.0018  0.0102 -0.0393 -0.0057 -0.0424 -0.0104
         15  0.0665 -0.0148 -0.0117  0.0156 -0.0295  0.0285  0.0173 -0.0157
         16  0.0469 -0.0010  0.0018 -0.0023  0.0220 -0.0279 -0.0445 -0.0291
         17 -0.0060 -0.0055  0.0073 -0.0244  0.0669 -0.0382  0.0372 -0.0012
         18 -0.0466  0.0049  0.0009 -0.0063  0.0067 -0.0060 -0.0148 -0.0220
         19 -0.0550 -0.0093 -0.0043  0.0025  0.0107  0.0984  0.0621  0.0019
         20  0.0019  0.2614 -0.0014 -0.0026  0.0593  0.0890 -0.0202  0.0744
         21 -0.0987 -0.1592 -0.0093  0.0111 -0.0233  0.0295  0.0252 -0.0254
         22  0.0377  0.0133 -0.0001 -0.0138  0.0567  0.0242 -0.0396  0.1073
         23 -0.0143 -0.2554 -0.0198 -0.0189  0.0650  0.0914 -0.0278  0.0806
         24 -0.0985 -0.1595 -0.0093  0.0108 -0.0227  0.0308  0.0240 -0.0211
         25 -0.0015 -0.0001  0.0062  0.0090 -0.0365 -0.0316  0.0259 -0.1163
         26 -0.0064  0.0015 -0.0108 -0.0107  0.0635  0.0909 -0.0239  0.0779
         27 -0.0860  0.2887  0.0065  0.0269 -0.0297  0.0298  0.0342 -0.0319
         28 -0.0579 -0.0001 -0.0075 -0.0025  0.0072  0.0025 -0.0061 -0.0791
         29  0.0193  0.0078  0.0011  0.0133 -0.0129  0.0612  0.0245 -0.0834
         30 -0.0368  0.0038  0.0015 -0.0093  0.0186 -0.0282 -0.0509 -0.0145
         31 -0.0196 -0.0009 -0.0062 -0.1147 -0.0739 -0.0657  0.0741  0.0898
         32  0.0006  0.0009 -0.0014 -0.0346 -0.0370 -0.0115  0.0087  0.0013
         33  0.0572  0.0025  0.0196  0.6421  0.1128 -0.0264  0.0910  0.0278
         34  0.0907 -0.0014 -0.0097  0.0014  0.0343 -0.0636 -0.1161 -0.0047
         35 -0.0095 -0.0227  0.3014 -0.0371  0.0801 -0.0384  0.0498  0.0128
         36 -0.0159  0.0058 -0.0271 -0.0026  0.0143 -0.0300 -0.0627 -0.0059
         37  0.0472  0.0070 -0.1933 -0.0163  0.0643 -0.0632 -0.0174 -0.0091
         38 -0.0100 -0.0003 -0.1283 -0.0386  0.1042 -0.0658  0.0717  0.0153
         39 -0.0844 -0.0061  0.1641 -0.0251  0.0351  0.0023  0.0672 -0.0197
         40  0.0472 -0.0099  0.2132  0.0174 -0.0215  0.0069 -0.0826 -0.0487
         41 -0.0082  0.0011 -0.1419 -0.0356  0.0927 -0.0588  0.0638  0.0094
         42 -0.0698  0.0161 -0.1367  0.0123 -0.0438  0.0393 -0.0062 -0.0646


   Root No.     9      10      11      12      13      14      15      16

              9A     10A     11A     12A     13A     14A     15A     16A   

              561.2   641.5   906.3  1012.8  1026.7  1060.9  1106.9  1186.8
  
          1 -0.0632  0.0086 -0.0547  0.0130 -0.0043 -0.0360 -0.0226  0.0077
          2  0.0112 -0.0011 -0.0207  0.0037  0.0002  0.0633 -0.0018  0.0020
          3 -0.0015  0.0087  0.0026 -0.0328  0.0155  0.0030 -0.0327 -0.0006
          4 -0.0516  0.0066 -0.0100 -0.0025  0.0015  0.0162  0.0113 -0.0062
          5  0.0026  0.0227 -0.0409  0.0040  0.0000 -0.0182 -0.0029 -0.0002
          6 -0.0325  0.0854  0.0007  0.0252 -0.0146 -0.0036  0.0514 -0.0033
          7  0.0314  0.0306  0.0340 -0.0077  0.0021 -0.0019  0.0257  0.0038
          8 -0.0460  0.0057  0.0417 -0.0090 -0.0094 -0.0054  0.0202 -0.0102
          9 -0.0222 -0.0484 -0.0208  0.0144 -0.0059  0.0009 -0.0201 -0.0813
         10  0.0346  0.0060 -0.0099 -0.0071 -0.0261 -0.0047 -0.0002 -0.0144
         11 -0.0628 -0.0189  0.0163  0.0039  0.0257  0.0075  0.0045  0.0074
         12  0.0272  0.0162 -0.0025 -0.0042 -0.0103 -0.0014  0.0021 -0.0004
         13  0.0465 -0.0131  0.0212 -0.0033  0.0022  0.0290  0.0067 -0.0006
         14  0.0700  0.0126 -0.0278  0.0054 -0.0015 -0.0296 -0.0109  0.0033
         15  0.0087 -0.0215 -0.0008 -0.0046  0.0024  0.0002 -0.0074 -0.0010
         16 -0.0057 -0.0211  0.0346  0.0236  0.0398  0.0035 -0.0216  0.0085
         17  0.0150 -0.0079  0.0253  0.0008 -0.0463  0.0071 -0.0234  0.0088
         18 -0.0009 -0.0201  0.0137 -0.0084  0.0135  0.0006  0.0044  0.0909
         19 -0.0144 -0.1537 -0.0166  0.1548 -0.0756 -0.2303  0.1038  0.0046
         20  0.0217 -0.0253  0.0254 -0.0017 -0.0009 -0.0651 -0.0026  0.0000
         21  0.0145 -0.0510 -0.0085  0.0399 -0.0187 -0.0123  0.0296 -0.0007
         22 -0.0990  0.1289  0.0151 -0.1432  0.0639 -0.2051 -0.1569  0.0050
         23  0.0174 -0.0121  0.0263 -0.0048  0.0004 -0.0647 -0.0001 -0.0002
         24  0.0181 -0.0526 -0.0006  0.0374 -0.0174  0.0059  0.0355 -0.0012
         25 -0.0820  0.0516 -0.1835  0.0361 -0.0055  0.2573 -0.0392  0.0190
         26  0.0197 -0.0192  0.0352 -0.0067  0.0009 -0.0663  0.0054 -0.0031
         27  0.0224 -0.0707 -0.0064  0.0531 -0.0252 -0.0027  0.0474 -0.0019
         28  0.0388 -0.0182  0.0068 -0.1103 -0.0243 -0.0100  0.0739 -0.2381
         29 -0.0619 -0.0162  0.0733 -0.1047  0.0633  0.0183  0.0934 -0.1691
         30 -0.0150 -0.0747 -0.0268 -0.0642 -0.0147 -0.0030  0.0242 -0.2456
         31  0.0130 -0.0165 -0.0542  0.0016 -0.0249  0.0171 -0.0431  0.0274
         32 -0.0555 -0.0075  0.0400 -0.0018  0.0231 -0.0038  0.0273 -0.0163
         33  0.0486  0.0156 -0.0131 -0.0011 -0.0121  0.0005 -0.0057  0.0057
         34 -0.0581 -0.1182 -0.0623 -0.1153 -0.0739 -0.0061  0.0748  0.2036
         35  0.0400 -0.0275 -0.0403 -0.0268  0.0510 -0.0097  0.0390  0.0178
         36 -0.0373 -0.0813 -0.0443 -0.0925 -0.0656 -0.0043  0.0595  0.2092
         37  0.0342 -0.0382 -0.0319  0.0046  0.1568 -0.0139  0.0396  0.0230
         38  0.0604 -0.0145 -0.0300 -0.0010  0.0920 -0.0099  0.0270  0.0081
         39  0.0844  0.0317  0.0065  0.0806  0.2673 -0.0140  0.0050 -0.0033
         40 -0.0575 -0.0159  0.0999  0.0213 -0.1023  0.0234 -0.0697  0.0281
         41  0.0486 -0.0081 -0.0118  0.0046  0.0468 -0.0054  0.0067 -0.0119
         42 -0.0265  0.0615  0.1913  0.1047 -0.0900  0.0381 -0.1464 -0.0076


   Root No.    17      18      19      20      21      22      23      24

             17A     18A     19A     20A     21A     22A     23A     24A   

             1260.2  1299.2  1349.2  1368.8  1372.0  1384.3  1387.3  1414.4
  
          1  0.0183 -0.0186 -0.0271  0.0208  0.0043  0.0008  0.0021  0.0203
          2  0.0031 -0.0058 -0.0116 -0.0441 -0.0083 -0.0013  0.0000  0.0079
          3 -0.0102 -0.0003  0.0008  0.0077 -0.0402  0.0003  0.0002 -0.0012
          4 -0.0227  0.0357  0.0812 -0.0042  0.0004  0.0007  0.0049 -0.0106
          5 -0.0072  0.0210  0.0537  0.0003  0.0009  0.0001  0.0024 -0.0173
          6  0.0245  0.0024 -0.0013  0.0008 -0.0032 -0.0008  0.0006  0.0028
          7 -0.0382 -0.0304 -0.0208  0.0020 -0.0006 -0.0008 -0.0168 -0.1166
          8 -0.0507  0.0055 -0.0181 -0.0028 -0.0002  0.0034  0.0123  0.1183
          9 -0.0547  0.0278 -0.0101  0.0006  0.0007  0.0003 -0.0086 -0.0420
         10 -0.0192  0.0348 -0.0194  0.0006  0.0003 -0.0005  0.0043  0.0586
         11  0.0070 -0.0353  0.0025  0.0006 -0.0002 -0.0012 -0.0062 -0.0568
         12 -0.0017 -0.0145  0.0022 -0.0003  0.0000 -0.0003  0.0008  0.0077
         13 -0.0056 -0.0025  0.0002 -0.0019 -0.0005 -0.0003  0.0002  0.0009
         14  0.0134 -0.0008 -0.0074  0.0006  0.0000  0.0000 -0.0022 -0.0119
         15 -0.0033  0.0002 -0.0001  0.0000 -0.0001  0.0003 -0.0001 -0.0008
         16  0.0290 -0.0028  0.0063  0.0002  0.0006 -0.0209  0.0273  0.0136
         17  0.0185  0.0004  0.0044  0.0015 -0.0001 -0.0238 -0.0310 -0.0072
         18  0.0223  0.0023  0.0047 -0.0008 -0.0002  0.0287 -0.0032  0.0065
         19  0.0642 -0.0195 -0.0872 -0.0997 -0.1635 -0.0063 -0.0133 -0.0380
         20  0.0013 -0.0038 -0.0133  0.3172 -0.1553  0.0077 -0.0003 -0.0128
         21  0.0140 -0.0024 -0.0230 -0.2421  0.0044 -0.0076 -0.0056 -0.0109
         22  0.0003 -0.0220 -0.0874 -0.1536  0.1122 -0.0053 -0.0184 -0.0472
         23  0.0068 -0.0033 -0.0184  0.2378  0.2568  0.0068 -0.0056 -0.0151
         24  0.0016  0.0037  0.0211  0.2248  0.0931  0.0070  0.0045  0.0111
         25  0.0548 -0.0775 -0.1953  0.0690  0.0070 -0.0009 -0.0185 -0.0061
         26 -0.0125  0.0209  0.0603 -0.0428 -0.0067 -0.0001  0.0079  0.0140
         27  0.0141  0.0011 -0.0051 -0.0801  0.4137 -0.0012 -0.0051 -0.0019
         28  0.1740 -0.2938  0.0804 -0.0037 -0.0020 -0.0129  0.0254  0.0886
         29  0.2196  0.3772 -0.1541  0.0144 -0.0047 -0.0154 -0.0378 -0.1096
         30  0.1187 -0.1539  0.0473 -0.0020 -0.0010 -0.0076  0.0160  0.0754
         31  0.1700  0.1387  0.1287 -0.0076 -0.0025  0.0085  0.0066 -0.0263
         32 -0.0917 -0.0843 -0.0738  0.0042  0.0012 -0.0057 -0.0065  0.0008
         33  0.0257 -0.0014  0.0246 -0.0012 -0.0007  0.0013  0.0050 -0.0004
         34  0.0102 -0.0136 -0.0242  0.0037  0.0005 -0.1491  0.0487  0.0222
         35 -0.0072  0.0097 -0.0421 -0.0102  0.0024  0.2251  0.3014 -0.0543
         36  0.0071 -0.0020 -0.0152  0.0029 -0.0001 -0.1004  0.0029  0.0158
         37  0.0100 -0.0131 -0.0032 -0.0087 -0.0021  0.2637 -0.0766  0.1048
         38  0.0031 -0.0044 -0.0049 -0.0054 -0.0019  0.1737 -0.0954  0.0956
         39  0.0100 -0.0006  0.0053  0.0064  0.0001 -0.2588 -0.0933  0.1939
         40  0.0716 -0.0189  0.0223 -0.0022 -0.0029  0.1556 -0.2330  0.0684
         41 -0.0108  0.0099 -0.0134  0.0020  0.0024 -0.1161  0.1638 -0.0411
         42  0.1031 -0.0011 -0.0166 -0.0031  0.0034  0.0279  0.1961  0.0121


   Root No.    25      26      27      28      29      30      31      32

             25A     26A     27A     28A     29A     30A     31A     32A   

             1424.3  1428.1  1547.4  2061.5  3015.0  3051.9  3067.7  3068.9
  
          1  0.0465 -0.0444  0.0149  0.0337 -0.0004 -0.0002  0.0000  0.0000
          2  0.0048 -0.0064  0.0020 -0.0111 -0.0001  0.0025 -0.0006  0.0009
          3  0.0003  0.0004  0.0009 -0.0001  0.0002 -0.0553  0.0001 -0.0001
          4 -0.0143  0.0219 -0.0402 -0.2359  0.0020 -0.0001  0.0003  0.0002
          5 -0.0072  0.0129 -0.0315  0.3297  0.0029  0.0001  0.0003  0.0004
          6 -0.0001 -0.0009 -0.0037  0.0033 -0.0013 -0.0017  0.0003 -0.0002
          7  0.0154  0.0014  0.0575 -0.0008  0.0294  0.0001 -0.0014  0.0046
          8 -0.0128 -0.0030  0.0826 -0.0108  0.0035  0.0000 -0.0020 -0.0001
          9  0.0077  0.0058  0.0248  0.0021 -0.0435 -0.0002  0.0024 -0.0055
         10 -0.0032 -0.0032 -0.0450  0.0001  0.0030  0.0000 -0.0003  0.0001
         11  0.0058  0.0000 -0.0095 -0.0105 -0.0022  0.0000  0.0003  0.0000
         12 -0.0005  0.0001 -0.0068 -0.0001 -0.0015 -0.0001  0.0000 -0.0003
         13 -0.0029  0.0016  0.0010  0.1487  0.0002  0.0000  0.0000  0.0001
         14  0.0061 -0.0031  0.0000 -0.2262 -0.0003  0.0000  0.0000 -0.0001
         15  0.0002  0.0002  0.0005 -0.0025 -0.0001 -0.0001  0.0000  0.0000
         16 -0.0232 -0.0253 -0.0106 -0.0023 -0.0085 -0.0002 -0.0067  0.0374
         17 -0.0039 -0.0082 -0.0122  0.0015 -0.0011 -0.0001 -0.0487 -0.0114
         18 -0.0291 -0.0348 -0.0132 -0.0026  0.0043  0.0001  0.0111 -0.0247
         19 -0.1154  0.0953 -0.0046  0.0479  0.0006 -0.1553 -0.0008  0.0014
         20 -0.0651  0.0570 -0.0015  0.0175 -0.0012  0.2215  0.0010 -0.0016
         21 -0.0188  0.0147 -0.0030  0.0326 -0.0018  0.3423  0.0022 -0.0035
         22 -0.1165  0.0988  0.0020  0.0473 -0.0007  0.1656 -0.0012  0.0019
         23 -0.0670  0.0579  0.0000  0.0183  0.0010 -0.2360  0.0015 -0.0023
         24  0.0181 -0.0146  0.0025 -0.0321 -0.0014  0.3682 -0.0029  0.0046
         25 -0.1406  0.1050  0.0236 -0.0413 -0.0011 -0.0070  0.0020 -0.0034
         26  0.0674 -0.0546 -0.0063  0.0242 -0.0010 -0.0165  0.0050 -0.0078
         27 -0.0011  0.0002  0.0009  0.0005  0.0001 -0.0268  0.0000 -0.0001
         28 -0.0114  0.0031  0.0020 -0.0035 -0.4243 -0.0011  0.0188 -0.0457
         29  0.0330 -0.0221 -0.0884  0.0335 -0.0341 -0.0001  0.0008 -0.0039
         30 -0.0079  0.0011 -0.0194 -0.0105  0.5977  0.0016 -0.0282  0.0686
         31 -0.0191  0.0290  0.4582  0.0204  0.0037 -0.0001 -0.0018  0.0000
         32  0.0126 -0.0164 -0.2622 -0.0263 -0.0005 -0.0001  0.0006 -0.0007
         33 -0.0042  0.0040  0.0641  0.0020 -0.0003  0.0003 -0.0007 -0.0004
         34  0.1064  0.1260 -0.0026  0.0014  0.0657  0.0011  0.0573 -0.2264
         35  0.0329  0.0452  0.0021  0.0014 -0.0070 -0.0001 -0.0303  0.0190
         36  0.0645  0.0748 -0.0058  0.0012 -0.0918 -0.0016 -0.0834  0.3427
         37  0.0503  0.0671  0.0049  0.0069  0.0118  0.0002 -0.2279 -0.1752
         38  0.0585  0.0738  0.0048  0.0063 -0.0210 -0.0003  0.2590  0.2396
         39  0.0792  0.1088  0.0198  0.0040  0.0048  0.0001 -0.0267 -0.0402
         40  0.0517  0.0557 -0.0426  0.0065  0.0237  0.0007  0.2524 -0.0568
         41 -0.0321 -0.0359  0.0159 -0.0036  0.0421  0.0012  0.3664 -0.1199
         42  0.1275  0.1563 -0.0638  0.0114 -0.0007 -0.0001 -0.0251 -0.0035


   Root No.    33      34      35      36

             33A     34A     35A     36A   

             3072.0  3152.2  3157.6  3492.5
  
          1 -0.0002 -0.0228  0.0003  0.0001
          2 -0.0490 -0.0014  0.0001  0.0001
          3 -0.0022  0.0004  0.0000  0.0000
          4  0.0010 -0.0040  0.0002 -0.0005
          5 -0.0027  0.0008  0.0001  0.0008
          6 -0.0001  0.0000  0.0000 -0.0001
          7  0.0005  0.0002 -0.0012  0.0020
          8  0.0003  0.0001 -0.0002 -0.0041
          9 -0.0002 -0.0001 -0.0033  0.0002
         10  0.0000  0.0000  0.0003 -0.0269
         11  0.0001  0.0000 -0.0002 -0.0498
         12  0.0000  0.0000  0.0001 -0.0081
         13 -0.0008  0.0007 -0.0001  0.0001
         14  0.0008 -0.0008  0.0001  0.0001
         15  0.0000  0.0000  0.0000  0.0000
         16  0.0009 -0.0002 -0.0125  0.0003
         17  0.0003  0.0000 -0.0026 -0.0001
         18 -0.0006 -0.0003 -0.0187  0.0002
         19 -0.0908  0.0966 -0.0015  0.0002
         20  0.1062 -0.1516  0.0022  0.0001
         21  0.2184 -0.2553  0.0037 -0.0005
         22 -0.0784  0.0937 -0.0014  0.0004
         23  0.0894 -0.1486  0.0021  0.0001
         24 -0.1912  0.2491 -0.0036  0.0005
         25  0.1680  0.1165 -0.0017  0.0000
         26  0.4037  0.3185 -0.0047 -0.0004
         27 -0.0001  0.0010  0.0000  0.0000
         28 -0.0016 -0.0002 -0.0089  0.0005
         29 -0.0002  0.0004 -0.0007  0.0000
         30  0.0024  0.0005  0.0137 -0.0029
         31  0.0001  0.0001 -0.0002  0.4019
         32  0.0006 -0.0002  0.0010  0.8278
         33  0.0001 -0.0001 -0.0004  0.1262
         34 -0.0054 -0.0028 -0.1883  0.0000
         35  0.0008  0.0002  0.0163 -0.0001
         36  0.0081  0.0038  0.2577  0.0004
         37 -0.0010  0.0028  0.1867 -0.0013
         38  0.0020 -0.0037 -0.2442  0.0008
         39 -0.0006  0.0003  0.0197 -0.0008
         40 -0.0041  0.0026  0.1688  0.0002
         41 -0.0066  0.0041  0.2629 -0.0009
         42  0.0001 -0.0004 -0.0286  0.0007


           MASS-WEIGHTED COORDINATE ANALYSIS (Energies in cm**(-1))


   Root No.     1       2       3       4       5       6       7       8

              1A      2A      3A      4A      5A      6A      7A      8A   

               21.2   119.8   152.9   226.5   257.1   312.8   435.6   502.9
  
          1 -0.0380  0.0069  0.0048 -0.0031  0.0649  0.2043  0.0981 -0.0136
          2 -0.0288  0.0109 -0.0578 -0.0333  0.2966  0.4499 -0.1203  0.1864
          3 -0.4634  0.0093 -0.0190  0.0619 -0.0967  0.0898  0.0271 -0.0106
          4 -0.0374  0.0062  0.0036 -0.0048  0.0805  0.1904  0.0963 -0.0560
          5  0.0097  0.0059 -0.0071  0.0274 -0.1006 -0.0091 -0.0861 -0.3414
          6  0.0198 -0.0133 -0.0087 -0.0013  0.0839 -0.1905 -0.2814  0.2654
          7 -0.0774 -0.0008 -0.0204 -0.0159  0.1010  0.0373  0.0628 -0.3445
          8  0.0293  0.0094  0.0052  0.0391 -0.1036  0.0579 -0.0377 -0.2022
          9 -0.0376  0.0206  0.0317 -0.0458  0.1644 -0.2394 -0.3018  0.0587
         10 -0.1443 -0.0136 -0.0380  0.0324 -0.1476 -0.3142  0.2482  0.1079
         11  0.0099  0.0018 -0.0040  0.0748 -0.3624 -0.2391  0.2499  0.3055
         12  0.3864  0.0741  0.0777 -0.3092  0.0263  0.0814  0.3816  0.0313
         13 -0.0137  0.0094  0.0389  0.0394 -0.2115  0.1514 -0.1824  0.4351
         14  0.0252  0.0097  0.0136  0.0574 -0.2999 -0.0449 -0.3086 -0.0751
         15  0.4741 -0.1124 -0.0910  0.0875 -0.2253  0.2254  0.1255 -0.1129
         16  0.2892 -0.0068  0.0119 -0.0112  0.1451 -0.1912 -0.2804 -0.1817
         17 -0.0371 -0.0363  0.0492 -0.1186  0.4420 -0.2618  0.2344 -0.0074
         18 -0.2877  0.0319  0.0061 -0.0308  0.0441 -0.0410 -0.0935 -0.1378
         19 -0.0983 -0.0178 -0.0084  0.0035  0.0206  0.1955  0.1133  0.0035
         20  0.0034  0.4984 -0.0027 -0.0036  0.1135  0.1767 -0.0369  0.1346
         21 -0.1765 -0.3036 -0.0181  0.0156 -0.0446  0.0585  0.0460 -0.0460
         22  0.0674  0.0253 -0.0002 -0.0195  0.1086  0.0481 -0.0723  0.1942
         23 -0.0255 -0.4870 -0.0385 -0.0265  0.1244  0.1816 -0.0507  0.1459
         24 -0.1760 -0.3042 -0.0181  0.0152 -0.0434  0.0611  0.0438 -0.0382
         25 -0.0028 -0.0003  0.0121  0.0126 -0.0699 -0.0627  0.0472 -0.2106
         26 -0.0115  0.0028 -0.0210 -0.0151  0.1216  0.1804 -0.0437  0.1411
         27 -0.1537  0.5504  0.0126  0.0378 -0.0569  0.0591  0.0625 -0.0577
         28 -0.1036 -0.0001 -0.0146 -0.0035  0.0138  0.0049 -0.0112 -0.1432
         29  0.0345  0.0148  0.0022  0.0187 -0.0246  0.1215  0.0447 -0.1510
         30 -0.0658  0.0073  0.0028 -0.0130  0.0356 -0.0560 -0.0929 -0.0262
         31 -0.0351 -0.0017 -0.0120 -0.1615 -0.1414 -0.1305  0.1352  0.1627
         32  0.0011  0.0018 -0.0026 -0.0487 -0.0708 -0.0228  0.0159  0.0023
         33  0.1022  0.0048  0.0381  0.9040  0.2159 -0.0523  0.1660  0.0503
         34  0.1622 -0.0027 -0.0188  0.0020  0.0656 -0.1262 -0.2119 -0.0084
         35 -0.0169 -0.0433  0.5858 -0.0522  0.1533 -0.0762  0.0909  0.0233
         36 -0.0284  0.0110 -0.0528 -0.0037  0.0274 -0.0595 -0.1145 -0.0106
         37  0.0843  0.0134 -0.3757 -0.0230  0.1231 -0.1255 -0.0317 -0.0165
         38 -0.0178 -0.0007 -0.2493 -0.0543  0.1995 -0.1306  0.1308  0.0278
         39 -0.1509 -0.0116  0.3190 -0.0353  0.0673  0.0045  0.1226 -0.0356
         40  0.0845 -0.0188  0.4144  0.0245 -0.0412  0.0138 -0.1507 -0.0883
         41 -0.0146  0.0021 -0.2758 -0.0501  0.1774 -0.1168  0.1164  0.0171
         42 -0.1247  0.0307 -0.2658  0.0173 -0.0839  0.0781 -0.0113 -0.1170


   Root No.     9      10      11      12      13      14      15      16

              9A     10A     11A     12A     13A     14A     15A     16A   

              561.2   641.5   906.3  1012.8  1026.7  1060.9  1106.9  1186.8
  
          1 -0.3444  0.0583 -0.3742  0.1135 -0.0305 -0.2359 -0.1823  0.0411
          2  0.0610 -0.0075 -0.1413  0.0325  0.0014  0.4145 -0.0148  0.0107
          3 -0.0080  0.0593  0.0180 -0.2865  0.1114  0.0200 -0.2636 -0.0031
          4 -0.2815  0.0449 -0.0682 -0.0216  0.0106  0.1060  0.0913 -0.0329
          5  0.0140  0.1545 -0.2797  0.0351  0.0002 -0.1189 -0.0231 -0.0013
          6 -0.1770  0.5804  0.0047  0.2203 -0.1048 -0.0238  0.4137 -0.0176
          7  0.1711  0.2077  0.2324 -0.0673  0.0150 -0.0124  0.2069  0.0204
          8 -0.2509  0.0385  0.2850 -0.0783 -0.0675 -0.0351  0.1624 -0.0544
          9 -0.1209 -0.3288 -0.1423  0.1259 -0.0422  0.0060 -0.1620 -0.4330
         10  0.2177  0.0472 -0.0781 -0.0711 -0.2162 -0.0357 -0.0020 -0.0883
         11 -0.3952 -0.1484  0.1284  0.0394  0.2125  0.0565  0.0419  0.0456
         12  0.1712  0.1269 -0.0199 -0.0427 -0.0850 -0.0106  0.0192 -0.0023
         13  0.2925 -0.1032  0.1677 -0.0332  0.0180  0.2189  0.0621 -0.0039
         14  0.4406  0.0988 -0.2192  0.0547 -0.0123 -0.2240 -0.1015  0.0205
         15  0.0550 -0.1687 -0.0062 -0.0461  0.0199  0.0016 -0.0684 -0.0063
         16 -0.0312 -0.1435  0.2367  0.2060  0.2854  0.0229 -0.1739  0.0455
         17  0.0820 -0.0539  0.1731  0.0068 -0.3317  0.0464 -0.1882  0.0466
         18 -0.0051 -0.1364  0.0934 -0.0731  0.0966  0.0037  0.0355  0.4838
         19 -0.0227 -0.3027 -0.0328  0.3917 -0.1570 -0.4368  0.2422  0.0071
         20  0.0342 -0.0498  0.0503 -0.0043 -0.0018 -0.1234 -0.0060  0.0000
         21  0.0230 -0.1004 -0.0168  0.1009 -0.0388 -0.0234  0.0690 -0.0010
         22 -0.1564  0.2538  0.0299 -0.3624  0.1327 -0.3890 -0.3659  0.0077
         23  0.0275 -0.0238  0.0520 -0.0122  0.0008 -0.1227 -0.0002 -0.0002
         24  0.0286 -0.1036 -0.0012  0.0945 -0.0362  0.0111  0.0828 -0.0019
         25 -0.1294  0.1016 -0.3635  0.0912 -0.0115  0.4881 -0.0915  0.0293
         26  0.0311 -0.0379  0.0697 -0.0169  0.0020 -0.1258  0.0126 -0.0048
         27  0.0353 -0.1392 -0.0128  0.1345 -0.0524 -0.0051  0.1106 -0.0029
         28  0.0612 -0.0358  0.0134 -0.2792 -0.0506 -0.0189  0.1724 -0.3672
         29 -0.0978 -0.0319  0.1451 -0.2649  0.1315  0.0347  0.2179 -0.2608
         30 -0.0236 -0.1471 -0.0531 -0.1625 -0.0305 -0.0056  0.0564 -0.3789
         31  0.0205 -0.0324 -0.1074  0.0041 -0.0517  0.0324 -0.1006  0.0423
         32 -0.0877 -0.0148  0.0792 -0.0045  0.0479 -0.0073  0.0637 -0.0251
         33  0.0768  0.0307 -0.0260 -0.0027 -0.0251  0.0010 -0.0134  0.0088
         34 -0.0917 -0.2328 -0.1233 -0.2918 -0.1534 -0.0115  0.1744  0.3141
         35  0.0632 -0.0542 -0.0798 -0.0678  0.1059 -0.0185  0.0911  0.0274
         36 -0.0589 -0.1601 -0.0878 -0.2339 -0.1364 -0.0081  0.1389  0.3228
         37  0.0541 -0.0752 -0.0633  0.0116  0.3258 -0.0264  0.0925  0.0354
         38  0.0954 -0.0286 -0.0595 -0.0026  0.1911 -0.0188  0.0629  0.0125
         39  0.1332  0.0625  0.0128  0.2040  0.5552 -0.0265  0.0117 -0.0051
         40 -0.0909 -0.0313  0.1979  0.0540 -0.2125  0.0444 -0.1625  0.0433
         41  0.0768 -0.0159 -0.0233  0.0116  0.0973 -0.0103  0.0157 -0.0184
         42 -0.0419  0.1212  0.3789  0.2650 -0.1869  0.0723 -0.3415 -0.0118


   Root No.    17      18      19      20      21      22      23      24

             17A     18A     19A     20A     21A     22A     23A     24A   

             1260.2  1299.2  1349.2  1368.8  1372.0  1384.3  1387.3  1414.4
  
          1  0.1177 -0.1049 -0.1841  0.1226  0.0257  0.0050  0.0137  0.0929
          2  0.0198 -0.0327 -0.0789 -0.2597 -0.0496 -0.0079  0.0003  0.0363
          3 -0.0657 -0.0016  0.0055  0.0452 -0.2416  0.0017  0.0016 -0.0053
          4 -0.1462  0.2013  0.5508 -0.0250  0.0025  0.0045  0.0325 -0.0483
          5 -0.0464  0.1183  0.3647  0.0020  0.0053  0.0006  0.0158 -0.0792
          6  0.1576  0.0136 -0.0089  0.0050 -0.0190 -0.0048  0.0043  0.0128
          7 -0.2457 -0.1715 -0.1414  0.0118 -0.0036 -0.0053 -0.1124 -0.5325
          8 -0.3262  0.0311 -0.1229 -0.0163 -0.0010  0.0209  0.0821  0.5404
          9 -0.3522  0.1566 -0.0686  0.0033  0.0039  0.0019 -0.0577 -0.1918
         10 -0.1426  0.2261 -0.1517  0.0040  0.0022 -0.0038  0.0334  0.3087
         11  0.0522 -0.2297  0.0195  0.0038 -0.0017 -0.0084 -0.0479 -0.2992
         12 -0.0123 -0.0944  0.0169 -0.0019  0.0002 -0.0021  0.0060  0.0404
         13 -0.0413 -0.0163  0.0013 -0.0127 -0.0032 -0.0021  0.0016  0.0049
         14  0.0993 -0.0050 -0.0583  0.0043  0.0003 -0.0001 -0.0171 -0.0625
         15 -0.0242  0.0011 -0.0009  0.0001 -0.0008  0.0020 -0.0011 -0.0042
         16  0.1867 -0.0157  0.0427  0.0010  0.0034 -0.1291  0.1820  0.0622
         17  0.1194  0.0021  0.0298  0.0087 -0.0004 -0.1472 -0.2066 -0.0330
         18  0.1435  0.0130  0.0316 -0.0047 -0.0014  0.1776 -0.0215  0.0295
         19  0.1197 -0.0318 -0.1713 -0.1703 -0.2847 -0.0113 -0.0257 -0.0503
         20  0.0025 -0.0062 -0.0262  0.5417 -0.2704  0.0139 -0.0005 -0.0170
         21  0.0261 -0.0039 -0.0453 -0.4135  0.0077 -0.0137 -0.0108 -0.0144
         22  0.0006 -0.0359 -0.1718 -0.2623  0.1953 -0.0094 -0.0355 -0.0624
         23  0.0126 -0.0054 -0.0361  0.4061  0.4471  0.0123 -0.0107 -0.0200
         24  0.0030  0.0061  0.0414  0.3838  0.1621  0.0125  0.0088  0.0147
         25  0.1021 -0.1265 -0.3839  0.1178  0.0122 -0.0016 -0.0357 -0.0081
         26 -0.0234  0.0341  0.1185 -0.0731 -0.0117 -0.0001  0.0153  0.0186
         27  0.0262  0.0019 -0.0101 -0.1368  0.7204 -0.0021 -0.0099 -0.0025
         28  0.3244 -0.4797  0.1580 -0.0063 -0.0035 -0.0231  0.0490  0.1172
         29  0.4094  0.6158 -0.3028  0.0246 -0.0082 -0.0276 -0.0731 -0.1450
         30  0.2213 -0.2512  0.0931 -0.0035 -0.0018 -0.0136  0.0309  0.0998
         31  0.3170  0.2265  0.2530 -0.0131 -0.0044  0.0153  0.0128 -0.0348
         32 -0.1710 -0.1377 -0.1451  0.0072  0.0021 -0.0103 -0.0125  0.0010
         33  0.0480 -0.0024  0.0483 -0.0021 -0.0012  0.0024  0.0096 -0.0005
         34  0.0190 -0.0223 -0.0475  0.0063  0.0008 -0.2674  0.0940  0.0294
         35 -0.0134  0.0158 -0.0828 -0.0174  0.0041  0.4038  0.5825 -0.0718
         36  0.0131 -0.0033 -0.0300  0.0050 -0.0002 -0.1800  0.0057  0.0208
         37  0.0187 -0.0215 -0.0062 -0.0149 -0.0037  0.4729 -0.1480  0.1386
         38  0.0057 -0.0072 -0.0096 -0.0092 -0.0033  0.3115 -0.1843  0.1264
         39  0.0187 -0.0009  0.0105  0.0110  0.0002 -0.4640 -0.1802  0.2565
         40  0.1334 -0.0309  0.0439 -0.0038 -0.0050  0.2791 -0.4502  0.0904
         41 -0.0201  0.0162 -0.0264  0.0034  0.0041 -0.2081  0.3164 -0.0543
         42  0.1922 -0.0017 -0.0326 -0.0052  0.0060  0.0499  0.3789  0.0160


   Root No.    25      26      27      28      29      30      31      32

             25A     26A     27A     28A     29A     30A     31A     32A   

             1424.3  1428.1  1547.4  2061.5  3015.0  3051.9  3067.7  3068.9
  
          1  0.3965 -0.3708  0.0730  0.0654 -0.0018 -0.0010  0.0000 -0.0003
          2  0.0413 -0.0530  0.0097 -0.0215 -0.0005  0.0132 -0.0035  0.0057
          3  0.0023  0.0031  0.0043 -0.0003  0.0007 -0.2855  0.0003 -0.0006
          4 -0.1223  0.1828 -0.1964 -0.4587  0.0091 -0.0007  0.0015  0.0010
          5 -0.0617  0.1078 -0.1538  0.6410  0.0131  0.0008  0.0016  0.0022
          6 -0.0010 -0.0073 -0.0182  0.0065 -0.0059 -0.0089  0.0016 -0.0011
          7  0.1315  0.0115  0.2807 -0.0015  0.1324  0.0003 -0.0082  0.0285
          8 -0.1095 -0.0247  0.4034 -0.0211  0.0155  0.0000 -0.0114 -0.0003
          9  0.0658  0.0487  0.1211  0.0041 -0.1959 -0.0010  0.0137 -0.0343
         10 -0.0312 -0.0309 -0.2535  0.0002  0.0157  0.0000 -0.0023  0.0005
         11  0.0566 -0.0004 -0.0538 -0.0235 -0.0112 -0.0001  0.0018  0.0000
         12 -0.0047  0.0013 -0.0383 -0.0003 -0.0076 -0.0006 -0.0001 -0.0022
         13 -0.0282  0.0151  0.0057  0.3336  0.0012  0.0003  0.0002  0.0007
         14  0.0601 -0.0300  0.0000 -0.5076 -0.0017 -0.0003  0.0001 -0.0005
         15  0.0023  0.0019  0.0029 -0.0056 -0.0005 -0.0009  0.0002  0.0001
         16 -0.1979 -0.2114 -0.0519 -0.0045 -0.0383 -0.0008 -0.0386  0.2321
         17 -0.0336 -0.0684 -0.0597  0.0029 -0.0050 -0.0003 -0.2800 -0.0708
         18 -0.2485 -0.2901 -0.0644 -0.0051  0.0192  0.0007  0.0637 -0.1533
         19 -0.2849  0.2304 -0.0065  0.0270  0.0008 -0.2323 -0.0013  0.0025
         20 -0.1608  0.1378 -0.0022  0.0098 -0.0015  0.3315  0.0016 -0.0028
         21 -0.0465  0.0356 -0.0043  0.0184 -0.0023  0.5122  0.0036 -0.0063
         22 -0.2877  0.2389  0.0028  0.0266 -0.0009  0.2478 -0.0021  0.0034
         23 -0.1654  0.1400  0.0001  0.0103  0.0012 -0.3531  0.0024 -0.0041
         24  0.0448 -0.0353  0.0036 -0.0181 -0.0019  0.5510 -0.0048  0.0082
         25 -0.3472  0.2539  0.0333 -0.0233 -0.0014 -0.0105  0.0034 -0.0060
         26  0.1666 -0.1320 -0.0089  0.0136 -0.0013 -0.0246  0.0083 -0.0141
         27 -0.0028  0.0006  0.0012  0.0003  0.0001 -0.0401  0.0001 -0.0001
         28 -0.0281  0.0074  0.0029 -0.0019 -0.5530 -0.0016  0.0313 -0.0822
         29  0.0815 -0.0535 -0.1250  0.0189 -0.0444 -0.0001  0.0013 -0.0070
         30 -0.0194  0.0026 -0.0274 -0.0059  0.7789  0.0025 -0.0469  0.1233
         31 -0.0472  0.0700  0.6481  0.0115  0.0049 -0.0001 -0.0029  0.0000
         32  0.0311 -0.0398 -0.3709 -0.0148 -0.0006 -0.0001  0.0009 -0.0013
         33 -0.0103  0.0096  0.0906  0.0011 -0.0003  0.0004 -0.0012 -0.0008
         34  0.2628  0.3046 -0.0037  0.0008  0.0856  0.0017  0.0954 -0.4070
         35  0.0812  0.1093  0.0030  0.0008 -0.0091 -0.0002 -0.0504  0.0342
         36  0.1594  0.1809 -0.0082  0.0007 -0.1197 -0.0024 -0.1387  0.6160
         37  0.1243  0.1623  0.0069  0.0039  0.0154  0.0003 -0.3792 -0.3150
         38  0.1444  0.1785  0.0067  0.0036 -0.0273 -0.0005  0.4310  0.4307
         39  0.1955  0.2631  0.0279  0.0023  0.0062  0.0001 -0.0444 -0.0722
         40  0.1277  0.1346 -0.0602  0.0037  0.0309  0.0011  0.4200 -0.1020
         41 -0.0792 -0.0867  0.0225 -0.0020  0.0549  0.0018  0.6097 -0.2156
         42  0.3150  0.3778 -0.0903  0.0064 -0.0010 -0.0001 -0.0417 -0.0064


   Root No.    33      34      35      36

             33A     34A     35A     36A   

             3072.0  3152.2  3157.6  3492.5
  
          1 -0.0012 -0.1411  0.0021  0.0003
          2 -0.2911 -0.0087  0.0003  0.0004
          3 -0.0131  0.0026 -0.0002  0.0000
          4  0.0058 -0.0244  0.0014 -0.0017
          5 -0.0158  0.0049  0.0004  0.0030
          6 -0.0005  0.0001  0.0002 -0.0002
          7  0.0029  0.0012 -0.0077  0.0072
          8  0.0016  0.0007 -0.0014 -0.0147
          9 -0.0011 -0.0004 -0.0207  0.0007
         10  0.0003 -0.0004  0.0021 -0.1119
         11  0.0005  0.0000 -0.0017 -0.2073
         12 -0.0001  0.0000  0.0004 -0.0336
         13 -0.0055  0.0047 -0.0004  0.0004
         14  0.0052 -0.0058  0.0005  0.0003
         15  0.0000 -0.0001 -0.0001  0.0000
         16  0.0051 -0.0012 -0.0787  0.0011
         17  0.0018  0.0000 -0.0164 -0.0004
         18 -0.0038 -0.0018 -0.1178  0.0009
         19 -0.1562  0.1730 -0.0026  0.0003
         20  0.1826 -0.2714  0.0040  0.0001
         21  0.3755 -0.4572  0.0068 -0.0005
         22 -0.1349  0.1677 -0.0025  0.0004
         23  0.1538 -0.2661  0.0039  0.0001
         24 -0.3288  0.4461 -0.0066  0.0005
         25  0.2889  0.2085 -0.0031  0.0000
         26  0.6943  0.5702 -0.0086 -0.0005
         27 -0.0001  0.0018  0.0000  0.0000
         28 -0.0028 -0.0003 -0.0162  0.0006
         29 -0.0003  0.0007 -0.0012  0.0000
         30  0.0041  0.0009  0.0249 -0.0031
         31  0.0002  0.0003 -0.0004  0.4202
         32  0.0011 -0.0004  0.0017  0.8655
         33  0.0002 -0.0001 -0.0008  0.1319
         34 -0.0093 -0.0051 -0.3426  0.0000
         35  0.0013  0.0004  0.0296 -0.0001
         36  0.0140  0.0068  0.4689  0.0005
         37 -0.0018  0.0050  0.3397 -0.0013
         38  0.0035 -0.0067 -0.4443  0.0008
         39 -0.0009  0.0005  0.0359 -0.0008
         40 -0.0070  0.0047  0.3071  0.0002
         41 -0.0114  0.0073  0.4784 -0.0009
         42  0.0002 -0.0007 -0.0520  0.0007
1

          DESCRIPTION OF VIBRATIONS


 VIBRATION    1    1A     ATOM PAIR     ENERGY CONTRIBUTION     RADIAL
 FREQ.       21.16     C   1 --  C   2         15.5% (999.9%)     0.0%
 T-DIPOLE   0.7446     C   1 --  H   9         13.8%              0.9%
 TRAVEL     0.0234     C   3 --  C   6         13.2%              0.0%
 RED. MASS  2.1888     C   1 --  H   7         10.8%             82.4%
 EFF. MASS********     C   1 --  H   8         10.8%             75.0%
                       C   6 --  H  13         11.0%             27.4%
                       C   6 --  H  14         11.2%             15.6%

 VIBRATION    2    2A     ATOM PAIR     ENERGY CONTRIBUTION     RADIAL
 FREQ.      119.78     C   1 --  H   7         34.0% (500.1%)     0.0%
 T-DIPOLE   0.0738     C   1 --  H   8         33.8%              0.0%
 TRAVEL     0.4615     C   1 --  H   9         30.7%              0.0%
 RED. MASS  0.3228     C   3 --  C   6          0.3%              0.0%
 EFF. MASS  2.6431

 VIBRATION    3    3A     ATOM PAIR     ENERGY CONTRIBUTION     RADIAL
 FREQ.      152.89     C   6 --  H  12         33.2% (394.2%)     0.0%
 T-DIPOLE   0.0759     C   6 --  H  13         31.8%              0.1%
 TRAVEL     0.3554     C   6 --  H  14         32.5%              0.3%
 RED. MASS  0.3197     C   1 --  C   2          0.4%              0.1%
 EFF. MASS  3.4926

 VIBRATION    4    4A     ATOM PAIR     ENERGY CONTRIBUTION     RADIAL
 FREQ.      226.46     O   4 --  H  11         31.4% (100.0%)     0.1%
 T-DIPOLE   1.6402     C   3 --  C   6         13.4%              0.0%
 TRAVEL     0.2152     C   3 --  O   4          6.5%              0.0%
 RED. MASS  0.8939     C   1 --  C   2          4.7%              0.0%
 EFF. MASS  6.4298     C   6 --  H  12         10.3%              6.4%

 VIBRATION    5    5A     ATOM PAIR     ENERGY CONTRIBUTION     RADIAL
 FREQ.      257.09     C   3 --  C   6         16.3% (212.4%)     0.1%
 T-DIPOLE   0.9200     C   6 --  H  12         13.1%              0.3%
 TRAVEL     0.0669     C   6 --  H  13         12.6%             53.4%
 RED. MASS  1.6720     C   1 --  C   2          9.5%              0.1%
 EFF. MASS 58.6645

 VIBRATION    6    6A     ATOM PAIR     ENERGY CONTRIBUTION     RADIAL
 FREQ.      312.75     C   1 --  C   2         16.4% (188.2%)     0.1%
 T-DIPOLE   0.5627     C   1 --  H   7         13.8%             31.8%
 TRAVEL     0.0681     C   1 --  H   8         13.5%              3.3%
 RED. MASS  1.5360     C   3 --  O   4          9.3%              0.2%
 EFF. MASS 46.5001

 VIBRATION    7    7A     ATOM PAIR     ENERGY CONTRIBUTION     RADIAL
 FREQ.      435.59     C   3 --  O   4         17.7% (121.5%)     0.2%
 T-DIPOLE   0.4689     C   3 --  C   6         15.6%              0.0%
 TRAVEL     0.0781     C   6 --  H  12         12.0%             16.1%
 RED. MASS  1.9782     C   2 --  C   3         10.4%             20.1%
 EFF. MASS 25.3802     C   6 --  H  14         10.6%              3.0%

 VIBRATION    8    8A     ATOM PAIR     ENERGY CONTRIBUTION     RADIAL
 FREQ.      502.93     C   2 --  C   3         17.7% (120.6%)     0.0%
 T-DIPOLE   0.8622     C   1 --  C   2         16.0%              0.5%
 TRAVEL     0.0828     C   3 --  O   4         15.2%              0.3%
 RED. MASS  1.6824     C   3 --  C   6         10.7%              2.1%
 EFF. MASS 19.5587

 VIBRATION    9    9A     ATOM PAIR     ENERGY CONTRIBUTION     RADIAL
 FREQ.      561.17     C   2 --  C   3         16.4% ( 98.5%)     0.3%
 T-DIPOLE   1.3665     C   1 --  C   2         10.7%             11.4%
 TRAVEL     0.0845     C   3 --  O   4          9.7%             20.5%
 RED. MASS  2.6147     C   2 --  O   5          9.5%              0.3%
 EFF. MASS 16.8308
1

 VIBRATION   10   10A     ATOM PAIR     ENERGY CONTRIBUTION     RADIAL
 FREQ.      641.52     C   2 --  C   3         22.8% (103.5%)     0.1%
 T-DIPOLE   0.2014     C   2 --  O   5         11.6%              0.1%
 TRAVEL     0.0935     C   1 --  C   2         11.0%              0.1%
 RED. MASS  1.9721     C   3 --  C   6         10.2%              1.7%
 EFF. MASS 12.0241

 VIBRATION   11   11A     ATOM PAIR     ENERGY CONTRIBUTION     RADIAL
 FREQ.      906.31     C   2 --  C   3         15.7% ( 73.5%)    95.0%
 T-DIPOLE   0.4843     C   1 --  C   2         10.9%             82.9%
 TRAVEL     0.0874     C   1 --  H   9          9.9%             88.3%
 RED. MASS  0.9453     C   3 --  C   6          9.5%             49.0%
 EFF. MASS  9.7438

 VIBRATION   12   12A     ATOM PAIR     ENERGY CONTRIBUTION     RADIAL
 FREQ.     1012.79     C   1 --  H   8         16.1% ( 53.6%)     8.0%
 T-DIPOLE   0.4236     C   1 --  H   7         14.4%             18.1%
 TRAVEL     0.1341     C   6 --  H  12         14.0%              7.8%
 RED. MASS  0.2851     C   3 --  H  10         12.6%              6.9%
 EFF. MASS  3.7005

 VIBRATION   13   13A     ATOM PAIR     ENERGY CONTRIBUTION     RADIAL
 FREQ.     1026.67     C   6 --  H  13         33.5% ( 82.3%)    24.8%
 T-DIPOLE   0.2017     C   6 --  H  14         19.5%              2.2%
 TRAVEL     0.1098     C   6 --  H  12         16.9%              1.6%
 RED. MASS  0.8631     C   3 --  C   6         11.7%             35.3%
 EFF. MASS  5.4445

 VIBRATION   14   14A     ATOM PAIR     ENERGY CONTRIBUTION     RADIAL
 FREQ.     1060.89     C   1 --  H   9         31.7% ( 78.0%)     7.3%
 T-DIPOLE   0.4449     C   1 --  H   7         21.8%             16.0%
 TRAVEL     0.1071     C   1 --  H   8         20.2%             13.5%
 RED. MASS  0.9218     C   1 --  C   2         17.9%             29.0%
 EFF. MASS  5.5366

 VIBRATION   15   15A     ATOM PAIR     ENERGY CONTRIBUTION     RADIAL
 FREQ.     1106.85     C   1 --  C   2         12.6% ( 48.0%)    14.0%
 T-DIPOLE   0.3756     C   2 --  C   3         10.4%             12.5%
 TRAVEL     0.0997     C   1 --  H   8         10.3%             29.2%
 RED. MASS  0.7409     C   6 --  H  14         10.5%             22.2%
 EFF. MASS  6.1253

 VIBRATION   16   16A     ATOM PAIR     ENERGY CONTRIBUTION     RADIAL
 FREQ.     1186.78     C   3 --  C   6         26.0% ( 69.9%)    70.0%
 T-DIPOLE   0.3344     C   3 --  H  10         19.6%             38.9%
 TRAVEL     0.0950     C   6 --  H  12         14.6%             83.2%
 RED. MASS  1.2838     C   6 --  H  13         10.7%              0.2%
 EFF. MASS  6.2923     C   6 --  H  14         10.8%              0.2%

 VIBRATION   17   17A     ATOM PAIR     ENERGY CONTRIBUTION     RADIAL
 FREQ.     1260.23     C   3 --  H  10         30.2% ( 76.7%)     0.9%
 T-DIPOLE   0.8065     C   3 --  C   6         18.8%             77.1%
 TRAVEL     0.0942     C   2 --  C   3         12.4%             24.9%
 RED. MASS  1.2427     C   3 --  O   4         12.1%             11.6%
 EFF. MASS  6.0267     O   4 --  H  11         10.3%              0.2%

 VIBRATION   18   18A     ATOM PAIR     ENERGY CONTRIBUTION     RADIAL
 FREQ.     1299.15     C   3 --  H  10         55.5% ( 81.2%)     6.1%
 T-DIPOLE   0.3540     C   3 --  O   4         11.6%             70.9%
 TRAVEL     0.1163     O   4 --  H  11          9.3%             51.9%
 RED. MASS  0.7385     C   2 --  C   3          7.8%             36.5%
 EFF. MASS  3.8357
1

 VIBRATION   19   19A     ATOM PAIR     ENERGY CONTRIBUTION     RADIAL
 FREQ.     1349.17     C   1 --  C   2         25.0% ( 64.7%)    73.3%
 T-DIPOLE   1.5839     C   2 --  C   3         24.0%             77.7%
 TRAVEL     0.0853     C   2 --  O   5         19.0%              0.6%
 RED. MASS  2.3880     C   3 --  H  10          7.8%              0.5%
 EFF. MASS  6.8734

 VIBRATION   20   20A     ATOM PAIR     ENERGY CONTRIBUTION     RADIAL
 FREQ.     1368.76     C   1 --  H   7         47.6% ( 62.0%)     1.4%
 T-DIPOLE   0.6165     C   1 --  H   8         37.3%              4.5%
 TRAVEL     0.1661     C   1 --  H   9          7.5%             43.5%
 RED. MASS  0.4790     C   1 --  C   2          7.1%             23.7%
 EFF. MASS  1.7849

 VIBRATION   21   21A     ATOM PAIR     ENERGY CONTRIBUTION     RADIAL
 FREQ.     1372.01     C   1 --  H   9         52.2% ( 62.6%)     0.1%
 T-DIPOLE   0.4144     C   1 --  H   8         27.2%              4.4%
 TRAVEL     0.1797     C   1 --  H   7         16.0%             18.7%
 RED. MASS  0.4115     C   1 --  C   2          4.6%              1.0%
 EFF. MASS  1.5227

 VIBRATION   22   22A     ATOM PAIR     ENERGY CONTRIBUTION     RADIAL
 FREQ.     1384.33     C   6 --  H  13         53.3% ( 64.1%)     0.2%
 T-DIPOLE   0.4007     C   6 --  H  12         26.9%              7.4%
 TRAVEL     0.1737     C   6 --  H  14         13.8%             17.4%
 RED. MASS  0.4355     C   3 --  C   6          5.5%              4.0%
 EFF. MASS  1.6149

 VIBRATION   23   23A     ATOM PAIR     ENERGY CONTRIBUTION     RADIAL
 FREQ.     1387.26     C   6 --  H  14         40.9% ( 59.2%)     0.5%
 T-DIPOLE   0.4485     C   6 --  H  12         32.3%              2.2%
 TRAVEL     0.1553     C   6 --  H  13          9.7%             40.5%
 RED. MASS  0.4072     C   3 --  C   6          8.3%             16.2%
 EFF. MASS  2.0163

 VIBRATION   24   24A     ATOM PAIR     ENERGY CONTRIBUTION     RADIAL
 FREQ.     1414.44     C   3 --  O   4         31.6% ( 86.6%)    97.9%
 T-DIPOLE   1.9988     C   3 --  H  10         21.4%              0.9%
 TRAVEL     0.0668     C   3 --  C   6         19.1%             28.8%
 RED. MASS  5.0744     C   2 --  C   3         18.9%             16.8%
 EFF. MASS 10.6875

 VIBRATION   25   25A     ATOM PAIR     ENERGY CONTRIBUTION     RADIAL
 FREQ.     1424.26     C   1 --  H   9         15.7% ( 47.2%)     4.0%
 T-DIPOLE   0.5078     C   1 --  H   8         13.9%              1.6%
 TRAVEL     0.1064     C   1 --  H   7         13.7%              1.5%
 RED. MASS  0.5245     C   6 --  H  14         11.5%              2.4%
 EFF. MASS  4.1798     C   6 --  H  12         10.5%              1.6%

 VIBRATION   26   26A     ATOM PAIR     ENERGY CONTRIBUTION     RADIAL
 FREQ.     1428.12     C   6 --  H  14         15.6% ( 46.7%)     2.9%
 T-DIPOLE   0.9253     C   6 --  H  12         14.1%              2.0%
 TRAVEL     0.1064     C   6 --  H  13         13.8%              1.3%
 RED. MASS  0.5576     C   1 --  C   2         11.3%             92.2%
 EFF. MASS  4.1728     C   1 --  H   8         11.3%              1.4%
                       C   1 --  H   7         11.0%              1.6%
                       C   1 --  H   9         11.1%              5.8%

 VIBRATION   27   27A     ATOM PAIR     ENERGY CONTRIBUTION     RADIAL
 FREQ.     1547.42     O   4 --  H  11         40.3% ( 74.5%)     2.6%
 T-DIPOLE   0.8895     C   2 --  C   3         16.0%             91.2%
 TRAVEL     0.0944     C   3 --  O   4         12.7%              0.8%
 RED. MASS  1.2356     C   3 --  C   6         11.5%             42.2%
 EFF. MASS  4.8862     C   3 --  H  10         11.7%              1.1%
1

 VIBRATION   28   28A     ATOM PAIR     ENERGY CONTRIBUTION     RADIAL
 FREQ.     2061.50     C   2 --  O   5         54.4% ( 99.2%)    99.9%
 T-DIPOLE   7.8059     C   1 --  C   2         22.9%             38.5%
 TRAVEL     0.0495     C   2 --  C   3         22.4%             22.6%
 RED. MASS  6.8154     C   1 --  H   7          0.1%             65.9%
 EFF. MASS 13.3705

 VIBRATION   29   29A     ATOM PAIR     ENERGY CONTRIBUTION     RADIAL
 FREQ.     3014.97     C   3 --  H  10         94.9% ( 98.5%)   100.0%
 T-DIPOLE   0.2079     C   6 --  H  12          2.4%             98.4%
 TRAVEL     0.1291     C   3 --  C   6          0.7%              7.6%
 RED. MASS  0.8813     C   2 --  C   3          0.7%              6.6%
 EFF. MASS  1.3422

 VIBRATION   30   30A     ATOM PAIR     ENERGY CONTRIBUTION     RADIAL
 FREQ.     3051.90     C   1 --  H   8         52.4% ( 74.6%)    97.9%
 T-DIPOLE   0.6498     C   1 --  H   7         45.8%             97.1%
 TRAVEL     0.1227     C   1 --  C   2          0.9%              0.0%
 RED. MASS  0.5049     C   1 --  H   9          0.9%              2.3%
 EFF. MASS  1.4685

 VIBRATION   31   31A     ATOM PAIR     ENERGY CONTRIBUTION     RADIAL
 FREQ.     3067.74     C   6 --  H  14         58.9% ( 79.1%)    98.8%
 T-DIPOLE   0.3646     C   6 --  H  13         35.8%             95.1%
 TRAVEL     0.1215     C   6 --  H  12          4.0%             47.1%
 RED. MASS  0.5012     C   3 --  C   6          1.0%              0.0%
 EFF. MASS  1.4879

 VIBRATION   32   32A     ATOM PAIR     ENERGY CONTRIBUTION     RADIAL
 FREQ.     3068.87     C   6 --  H  12         58.7% ( 78.9%)    99.1%
 T-DIPOLE   0.4327     C   6 --  H  13         31.3%             93.7%
 TRAVEL     0.1216     C   6 --  H  14          6.7%             63.6%
 RED. MASS  0.4708     C   3 --  H  10          2.2%             99.9%
 EFF. MASS  1.4859

 VIBRATION   33   33A     ATOM PAIR     ENERGY CONTRIBUTION     RADIAL
 FREQ.     3071.98     C   1 --  H   9         60.9% ( 80.4%)    99.3%
 T-DIPOLE   0.5133     C   1 --  H   7         21.6%             88.9%
 TRAVEL     0.1211     C   1 --  H   8         16.4%             84.6%
 RED. MASS  0.4714     C   1 --  C   2          1.0%              0.1%
 EFF. MASS  1.4963

 VIBRATION   34   34A     ATOM PAIR     ENERGY CONTRIBUTION     RADIAL
 FREQ.     3152.17     C   1 --  H   9         38.0% ( 59.4%)    97.0%
 T-DIPOLE   0.4772     C   1 --  H   7         31.7%             96.1%
 TRAVEL     0.1379     C   1 --  H   8         30.1%             95.8%
 RED. MASS  0.3297     C   1 --  C   2          0.2%             98.6%
 EFF. MASS  1.1244

 VIBRATION   35   35A     ATOM PAIR     ENERGY CONTRIBUTION     RADIAL
 FREQ.     3157.56     C   6 --  H  12         34.5% ( 56.6%)    96.6%
 T-DIPOLE   0.2544     C   6 --  H  14         33.2%             96.4%
 TRAVEL     0.1378     C   6 --  H  13         31.9%             96.1%
 RED. MASS  0.3266     C   3 --  C   6          0.2%             99.9%
 EFF. MASS  1.1243

 VIBRATION   36   36A     ATOM PAIR     ENERGY CONTRIBUTION     RADIAL
 FREQ.     3492.53     O   4 --  H  11         99.6% (100.0%)    99.9%
 T-DIPOLE   1.1422     C   3 --  O   4          0.4%              4.8%
 TRAVEL     0.1180
 RED. MASS  0.9477
 EFF. MASS  1.3877
1
           SYMMETRY NUMBER FOR POINT-GROUP C1  =  1


                                                                                                                         
 Vibrational spectrum                                                                                                    


          MOLECULE IS NOT LINEAR

          THERE ARE   36 GENUINE VIBRATIONS IN THIS SYSTEM
          THIS THERMODYNAMICS CALCULATION IS LIMITED TO
          MOLECULES WHICH HAVE NO INTERNAL ROTATIONS




                    CALCULATED THERMODYNAMIC PROPERTIES
                                          *
   TEMP. (K)   PARTITION FUNCTION  H.O.F.     ENTHALPY   HEAT CAPACITY  ENTROPY
                                    KCAL/MOL   CAL/MOLE    CAL/K/MOL   CAL/K/MOL


    298  VIB.     0.1807D+03                  2969.3348    18.9802    20.2918
         ROT.     0.1494D+06                   888.2854     2.9808    26.6570
         INT.     0.2700D+08                  3857.6202    21.9610    46.9488
         TRA.     0.7995D+27                  1480.4756     4.9680    39.3383
         TOT.                    -97.368      5338.0958    26.9290    86.2871

    200  VIB.     0.3365D+02                  1393.8425    13.2715    13.9562
         ROT.     0.8213D+05                   596.1647     2.9808    25.4683
         INT.     0.2764D+07                  1990.0071    16.2523    39.4245
         TRA.     0.4396D+27                   993.6078     4.9680    37.3572
         TOT.                    -99.722      2983.6149    21.2203    76.7817

    250  VIB.     0.8003D+02                  2127.8142    16.1081    17.2200
         ROT.     0.1148D+06                   745.2059     2.9808    26.1335
         INT.     0.9186D+07                  2873.0200    19.0890    43.3535
         TRA.     0.6144D+27                  1242.0097     4.9680    38.4658
         TOT.                    -98.591      4115.0298    24.0570    81.8193

    300  VIB.     0.1869D+03                  3007.4178    19.1028    20.4192
         ROT.     0.1509D+06                   894.2470     2.9808    26.6770
         INT.     0.2820D+08                  3901.6648    22.0836    47.0961
         TRA.     0.8076D+27                  1490.4117     4.9680    39.3715
         TOT.                    -97.314      5392.0765    27.0517    86.4677

    350  VIB.     0.4308D+03                  4039.9660    22.2076    23.5964
         ROT.     0.1901D+06                  1043.2882     2.9808    27.1365
         INT.     0.8191D+08                  5083.2541    25.1884    50.7328
         TRA.     0.1018D+28                  1738.8137     4.9680    40.1374
         TOT.                    -95.884      6822.0678    30.1564    90.8702

    400  VIB.     0.9837D+03                  5227.9456    25.2995    26.7644
         ROT.     0.2323D+06                  1192.3294     2.9808    27.5345
         INT.     0.2285D+09                  6420.2749    28.2803    54.2989
         TRA.     0.1243D+28                  1987.2156     4.9680    40.8008
         TOT.                    -94.298      8407.4905    33.2484    95.0997

    450  VIB.     0.2231D+04                  6567.9375    28.2743    29.9176
         ROT.     0.2772D+06                  1341.3705     2.9808    27.8856
         INT.     0.6185D+09                  7909.3081    31.2551    57.8031
         TRA.     0.1484D+28                  2235.6175     4.9680    41.3859
         TOT.                    -92.561     10144.9256    36.2232    99.1890

    500  VIB.     0.5032D+04                  8052.4044    31.0721    33.0430
         ROT.     0.3247D+06                  1490.4117     2.9808    28.1996
         INT.     0.1634D+10                  9542.8161    34.0529    61.2427
         TRA.     0.1738D+28                  2484.0195     4.9680    41.9093
         TOT.                    -90.679     12026.8356    39.0209   103.1520

   *: NOTE: HEATS OF FORMATION ARE RELATIVE TO THE
             ELEMENTS IN THEIR STANDARD STATE AT 298K
              (=  Standard Enthalpy of Formation).
            Heat of Formation at T is calculated as [Escf + (HT - H298.15)-.

            Hvib:  Zero-point energy is not included.
                   Wi < 100 cm-1 are not included.
            Hrot = (3/2)RT
            Htra = (3/2)RT + pV = (5/2)RT

            Heat capacity is Cp, not Cv

                 See Section 8.20 in Manual for further information.   (by TH).

           FORCE CONSTANT IN INTERNAL COORDINATES (Millidynes/A)

    ATOM   CHEMICAL  BOND LENGTH      BOND ANGLE     TWIST ANGLE
   NUMBER   SYMBOL  FORCE CONSTANT  FORCE CONSTANT  FORCE CONSTANT

      1       C        0.000000        0.000000        0.000000
      2       C        7.126425        0.000000        0.000000
      3       C        6.676206        2.061647        0.000000
      4       O        8.376498        2.169527        0.010771
      5       O       17.459106        2.007751        0.376445
      6       C        6.785774        1.526138        1.449173
      7       H        5.312614        0.894549        0.030538
      8       H        5.303548        0.899838        0.732762
      9       H        5.358824        0.954746        0.695452
     10       H        5.100798        1.024194        1.030682
     11       H        6.829747        1.065268        0.029714
     12       H        5.346048        0.937196        0.046556
     13       H        5.338178        0.958727        0.734953
     14       H        5.342281        0.956527        0.710467
