 *******************************************************************************
 **                            MOPAC2002 (c) Fujitsu                          **
 *******************************************************************************

                              PM3 CALCULATION RESULTS


 *******************************************************************************
 *              MOPAC2002 Version 2.20CAChe    CALC.'D. Tue Jun  1 05:53:12 2004
 *                                           Microsoft(R) Windows 95/98/NT/2000.
 *  PM3      - THE PM3 HAMILTONIAN TO BE USED
 *  NOMM     - DO NOT MAKE MM CORRECTION TO CONH BARRIER
 *  NODIIS   - DO NOT USE GDIIS GEOMETRY OPTIMIZER
 *  T=       - A TIME OF    10.0 DAYS    REQUESTED
 *  DUMP=N   - RESTART FILE WRITTEN EVERY  7200.000 SECONDS
 *  VECTORS  - FINAL EIGENVECTORS TO BE PRINTED
 *  BONDS    - FINAL BOND-ORDER MATRIX TO BE PRINTED
 *  GRAPH    - GENERATE FILE FOR GRAPHICS
 *******************************************************************************
 PM3 NOMM BONDS VECTORS NODIIS GRAPH T=10D
 Optimize geometry
 CAChe_MOPAC_coordinate_shift:     -2.248307       -1.009106       -0.715378
  ATOM    CHEMICAL     BOND LENGTH    BOND ANGLE    TWIST ANGLE 
 NUMBER    SYMBOL      (ANGSTROMS)    (DEGREES)     (DEGREES) 
   (I)                   NA:I          NB:NA:I       NC:NB:NA:I       NA    NB    NC 
    1       C(  1)        0.000000      0.000000       0.000000                      
    2      XX(   )        4.331385      0.000000       0.000000        1             
    3      XX(   )        3.726157     90.000000       0.000000        2     1       
    4       C(  2)        1.540000  *  44.118570  *    0.000000  *     1     2     3 
    5       C(  3)        1.540001  * 119.998343  *  -60.000025  *     4     1     2 
    6       O(  4)        1.499999  * 109.470723  *   60.000205  *     5     4     1 
    7       O(  5)        1.316809  * 120.001642  * -179.999944  *     4     1     5 
    8       C(  6)        1.540000  * 109.471449  *  119.999822  *     5     4     6 
    9       H(  7)        1.090000  *  65.352599  *  180.000000  *     1     2     4 
   10       H(  8)        1.090000  * 124.573703  *   97.422634  *     1     2     9 
   11       H(  9)        1.090000  * 124.573732  *  165.154724  *     1     2    10 
   12       H( 10)        1.090000  * 109.471458  *  120.000271  *     5     4     8 
   13       H( 11)        1.050001  * 109.471234  * -179.999987  *     6     5     4 
   14       H( 12)        1.090000  * 109.471194  *  -59.999996  *     8     5     4 
   15       H( 13)        1.090001  * 109.471199  *  120.000013  *     8     5    14 
   16       H( 14)        1.090000  * 109.471216  *  119.999974  *     8     5    15 


          CARTESIAN COORDINATES 

    NO.       ATOM           X             Y             Z

     1         C        0.00000000    0.00000000    0.00000000
     2         C        1.10556709    1.07206409    0.00000000
     3         C        2.12254838    1.12933709    1.15502033
     4         O        2.87453316   -0.16672755    1.22381231
     5         O        1.18132710    1.93976920   -0.98759010
     6         C        3.11157615    2.28434981    0.91136139
     7         H        0.45456582   -0.99069163    0.00000000
     8         H       -0.61853782    0.11594597    0.88998174
     9         H       -0.61853828    0.11594606   -0.88998141
    10         H        1.59589336    1.29416510    2.09500236
    11         H        3.56793234   -0.12768655    2.01132451
    12         H        3.63823638    2.11951774   -0.02861702
    13         H        2.56513194    3.22615722    0.86136437
    14         H        3.83138503    2.32488380    1.72887724


      RHF CALCULATION, NO. OF DOUBLY OCCUPIED LEVELS =   18
 
    Memory needed:      213596 bytes
 Memory available:  1048576000 bytes
 
  H: (PM3): J. J. P. STEWART, J. COMP. CHEM. 10, 209 (1989).                    
  C: (PM3): J. J. P. STEWART, J. COMP. CHEM. 10, 209 (1989).                    
  O: (PM3): J. J. P. STEWART, J. COMP. CHEM. 10, 209 (1989).                    

           EMPIRICAL FORMULA: C4 H8 O2



      MOLECULAR POINT GROUP   :   C1  

          DIAGONAL MATRIX USED AS START HESSIAN

 CYCLE:   1 TIME:   0.170 TIME LEFT:  1.43W  GRAD.:   217.089 HEAT:-73.74031    
 CYCLE:   2 TIME:   0.030 TIME LEFT:  1.43W  GRAD.:   161.749 HEAT:-89.18888    
 CYCLE:   3 TIME:   0.130 TIME LEFT:  1.43W  GRAD.:    43.585 HEAT:-94.25801    
 CYCLE:   4 TIME:   0.120 TIME LEFT:  1.43W  GRAD.:    14.302 HEAT:-94.97384    
 CYCLE:   5 TIME:   0.150 TIME LEFT:  1.43W  GRAD.:    11.177 HEAT:-95.24743    
 CYCLE:   6 TIME:   0.110 TIME LEFT:  1.43W  GRAD.:     6.949 HEAT:-95.34892    
 CYCLE:   7 TIME:   0.130 TIME LEFT:  1.43W  GRAD.:     1.823 HEAT:-95.38291    
 CYCLE:   8 TIME:   0.110 TIME LEFT:  1.43W  GRAD.:     1.648 HEAT:-95.39055    
 CYCLE:   9 TIME:   0.120 TIME LEFT:  1.43W  GRAD.:     2.378 HEAT:-95.39998    
 CYCLE:  10 TIME:   0.110 TIME LEFT:  1.43W  GRAD.:     1.751 HEAT:-95.40610    
 CYCLE:  11 TIME:   0.130 TIME LEFT:  1.43W  GRAD.:     9.028 HEAT:-95.31913    
 CYCLE:  12 TIME:   0.110 TIME LEFT:  1.43W  GRAD.:     2.386 HEAT:-95.42281    
 CYCLE:  13 TIME:   0.140 TIME LEFT:  1.43W  GRAD.:     2.701 HEAT:-95.42427    
 CYCLE:  14 TIME:   0.110 TIME LEFT:  1.43W  GRAD.:     1.926 HEAT:-95.43334    
 CYCLE:  15 TIME:   0.030 TIME LEFT:  1.43W  GRAD.:     4.916 HEAT:-95.41193    
 CYCLE:  16 TIME:   0.010 TIME LEFT:  1.43W  GRAD.:     1.504 HEAT:-95.44911    
 CYCLE:  17 TIME:   0.130 TIME LEFT:  1.43W  GRAD.:     1.496 HEAT:-95.43847    
 CYCLE:  18 TIME:   0.130 TIME LEFT:  1.43W  GRAD.:     0.387 HEAT:-95.44924    

     RMS GRADIENT =  0.38669  IS LESS THAN CUTOFF =  1.00000



 -------------------------------------------------------------------------------
 PM3 NOMM BONDS VECTORS NODIIS GRAPH T=10D
 Optimize geometry
 CAChe_MOPAC_coordinate_shift:     -2.248307       -1.009106       -0.715378


     GEOMETRY OPTIMISED USING EIGENVECTOR FOLLOWING (EF).     
     SCF FIELD WAS ACHIEVED                                   


                                  PM3  CALCULATION
                                                       MOPAC2002 Version 2.20
                                                       Tue Jun  1 05:53:17 2004  




          FINAL HEAT OF FORMATION =        -95.44915 KCAL =       -399.35923 KJ


          TOTAL ENERGY            =      -1185.21199 EV
          ELECTRONIC ENERGY       =      -4448.98575 EV  POINT GROUP:     C1  
          CORE-CORE REPULSION     =       3263.77376 EV

          IONIZATION POTENTIAL    =         10.61813
          NO. OF FILLED LEVELS    =        18
          MOLECULAR WEIGHT        =     88.106

          MOLECULAR DIMENSIONS (Angstroms)

            Atom       Atom       Distance
            H    14    H     9     5.64876
            H    13    H    11     3.51823
            H    12    H     8     2.87608


          SCF CALCULATIONS =               19
          COMPUTATION TIME =           2.10 SECONDS
          WALL CLOCK TIME  =              5 SECONDS




  ATOM    CHEMICAL     BOND LENGTH    BOND ANGLE    TWIST ANGLE 
 NUMBER    SYMBOL      (ANGSTROMS)    (DEGREES)     (DEGREES) 
   (I)                   NA:I          NB:NA:I       NC:NB:NA:I       NA    NB    NC 
    1       C(  1)        0.000000      0.000000       0.000000                      
    2      XX(   )        4.331385      0.000000       0.000000        1             
    3      XX(   )        3.726157     90.000000       0.000000        2     1       
    4       C(  2)        1.503136  *  42.988760  *    0.900730  *     1     2     3 
    5       C(  3)        1.541537  * 115.548983  *  -64.206563  *     4     1     2 
    6       O(  4)        1.416316  * 105.874326  *   61.991038  *     5     4     1 
    7       O(  5)        1.214191  * 122.257520  * -178.769791  *     4     1     5 
    8       C(  6)        1.524468  * 113.282863  *  123.427693  *     5     4     6 
    9       H(  7)        1.098809  *  67.062781  * -179.779602  *     1     2     4 
   10       H(  8)        1.097786  * 124.585785  *   96.102242  *     1     2     9 
   11       H(  9)        1.097692  * 126.745941  *  168.326776  *     1     2    10 
   12       H( 10)        1.119138  * 107.157527  *  120.795298  *     5     4     8 
   13       H( 11)        0.948008  * 106.567193  *  172.770089  *     6     5     4 
   14       H( 12)        1.098189  * 111.973760  *  -62.297254  *     8     5     4 
   15       H( 13)        1.097316  * 110.762683  *  119.838429  *     8     5    14 
   16       H( 14)        1.098543  * 111.443566  *  119.637886  *     8     5    15 


      MOLECULAR POINT GROUP   :   C1  


                EIGENVECTORS  


   Root No.    10      11      12      13      14      15      16      17

             10A     11A     12A     13A     14A     15A     16A     17A   

            -15.365 -14.917 -14.463 -13.687 -13.192 -12.995 -12.816 -11.567
  
  S   C   1 -0.0093  0.0087  0.0046 -0.0004 -0.0059 -0.0182  0.0151  0.0418
  Px  C   1 -0.3695 -0.2479  0.0444  0.0920 -0.1147  0.1495  0.2680  0.0599
  Py  C   1 -0.0553  0.3947  0.0965 -0.0887  0.0826 -0.1978 -0.2771  0.1172
  Pz  C   1 -0.0678  0.2015 -0.2890  0.3237 -0.4402  0.0884 -0.1557  0.0122
  S   C   2 -0.1298  0.0210 -0.0580  0.0220  0.0564 -0.0776  0.0229  0.0601
  Px  C   2  0.0135 -0.2855 -0.1481  0.0020  0.0653 -0.1411 -0.1881 -0.0337
  Py  C   2  0.3868  0.1713 -0.1053  0.0283  0.0237  0.1038  0.2164 -0.0370
  Pz  C   2 -0.1668  0.2005 -0.0446 -0.0118  0.1885 -0.0772  0.1707  0.0562
  S   C   3 -0.0174  0.0006  0.1124 -0.0182  0.0311  0.0405 -0.0277 -0.0274
  Px  C   3 -0.0712  0.1446  0.1285  0.0997 -0.1905 -0.0137  0.0627  0.2825
  Py  C   3 -0.0749 -0.0280  0.3190  0.1416  0.0281  0.1661 -0.1083  0.0934
  Pz  C   3  0.1861 -0.1228 -0.0181 -0.0208 -0.0826  0.1496 -0.0497 -0.1584
  S   O   4  0.1314  0.0026  0.1519  0.0775  0.0144  0.0681 -0.0454  0.0190
  Px  O   4 -0.3753  0.1278  0.0575  0.1156  0.0091 -0.2047  0.0878 -0.5377
  Py  O   4 -0.0890  0.1811 -0.1942 -0.1074 -0.1804 -0.3069  0.2354 -0.1994
  Pz  O   4 -0.1083 -0.1506 -0.3938 -0.3454 -0.0498 -0.0072  0.0118  0.4794
  S   O   5 -0.1612  0.0347  0.0433 -0.0052  0.0316 -0.0205  0.0006  0.0120
  Px  O   5 -0.1142 -0.2895 -0.2143 -0.0261  0.1047 -0.2889 -0.3134  0.1117
  Py  O   5 -0.1046  0.3057 -0.0109 -0.0387  0.2136 -0.0263  0.4400  0.1653
  Pz  O   5  0.4113  0.0714 -0.2456  0.0589  0.0038  0.0547  0.3070  0.0601
  S   C   6  0.0098  0.0091  0.0442  0.0174 -0.0263  0.0400 -0.0168  0.0970
  Px  C   6 -0.0501  0.0628 -0.4433  0.0291  0.3454  0.1830 -0.0512 -0.2154
  Py  C   6  0.1804 -0.1342 -0.0764 -0.2227 -0.2051 -0.3459  0.1242 -0.2114
  Pz  C   6  0.1170 -0.1451 -0.0124  0.4963  0.1836 -0.3261  0.0731  0.1040
  S   H   7 -0.0627 -0.3605 -0.0523  0.1076 -0.1091  0.2151  0.3186 -0.0479
  S   H   8  0.1229  0.2751 -0.2081  0.1717 -0.2564 -0.0322 -0.2811 -0.0032
  S   H   9  0.1984  0.0161  0.1806 -0.2716  0.3678 -0.1599 -0.0395 -0.0155
  S   H  10  0.1379 -0.1365  0.0016 -0.0462  0.0472  0.1507 -0.1094 -0.3406
  S   H  11 -0.2400 -0.0244 -0.1795 -0.1030  0.0044 -0.1028  0.0460 -0.0182
  S   H  12 -0.1058  0.1266 -0.1944 -0.2779  0.0718  0.3569 -0.1022 -0.1507
  S   H  13  0.1430 -0.0953  0.1289 -0.2083 -0.3216 -0.2995  0.1175 -0.0336
  S   H  14  0.0557 -0.0721 -0.1960  0.3815  0.2921 -0.1525  0.0266  0.0205


   Root No.    18      19      20      21      22      23      24      25

             18A     19A     20A     21A     22A     23A     24A     25A   

            -10.618   0.762   2.264   3.124   3.367   3.519   3.715   4.051
  
  S   C   1  0.1138 -0.0058 -0.2764 -0.1572 -0.1325  0.1322 -0.4029 -0.0112
  Px  C   1  0.2339  0.0308 -0.2160 -0.1304 -0.0780  0.0584 -0.0059 -0.1335
  Py  C   1  0.2263 -0.0088 -0.2634 -0.0651  0.0724 -0.0546 -0.0213 -0.0056
  Pz  C   1 -0.0230 -0.0248  0.0379  0.0208  0.0126  0.0517 -0.3532  0.4060
  S   C   2 -0.0249 -0.0226  0.5279  0.1363 -0.0621 -0.0975  0.0376  0.0192
  Px  C   2 -0.1844  0.4514  0.0776 -0.1142 -0.1823  0.0784 -0.2717 -0.0380
  Py  C   2 -0.0846 -0.4987 -0.1184 -0.0756  0.0062 -0.0582 -0.1253 -0.1179
  Pz  C   2 -0.1327 -0.3473  0.2015 -0.0112 -0.0042 -0.0003 -0.1841 -0.0325
  S   C   3 -0.1019  0.0291 -0.4021  0.4437 -0.0703  0.0104  0.0337 -0.0407
  Px  C   3  0.1368  0.0525  0.1576  0.1322 -0.0694 -0.4900 -0.2365 -0.1211
  Py  C   3  0.0353 -0.0807 -0.0295 -0.0783 -0.5011 -0.0800  0.0746 -0.0862
  Pz  C   3  0.3526 -0.0309  0.3268  0.3773 -0.1343  0.2168 -0.0921  0.0994
  S   O   4  0.0494 -0.0629  0.0663 -0.1152 -0.2105  0.0614  0.0263 -0.0459
  Px  O   4  0.0521  0.0194  0.0146  0.0632 -0.0636  0.0521 -0.0306 -0.0603
  Py  O   4  0.0262 -0.1436  0.0919 -0.3071 -0.2463  0.1399  0.1281  0.0031
  Pz  O   4 -0.1804 -0.0299  0.0249 -0.1012 -0.2225  0.0101  0.0050 -0.0955
  S   O   5 -0.0020  0.0018 -0.0543 -0.0156  0.0212  0.0371 -0.0182  0.0127
  Px  O   5  0.5986 -0.3421 -0.0201  0.0426  0.0696 -0.0449  0.0955 -0.0095
  Py  O   5  0.2788  0.3697  0.1060  0.0367 -0.0577 -0.0329  0.0826  0.0049
  Pz  O   5  0.3519  0.2626 -0.1382 -0.0098  0.0439  0.0971  0.0116  0.0609
  S   C   6  0.0013 -0.0097  0.1329 -0.2001  0.2905  0.3929  0.0016 -0.1794
  Px  C   6 -0.0356  0.0068 -0.0811  0.1937 -0.0326 -0.1978 -0.2277 -0.4338
  Py  C   6 -0.0528  0.0007 -0.1422  0.1136 -0.2995 -0.0044  0.0750 -0.0280
  Pz  C   6 -0.0661 -0.0045  0.0768  0.1329 -0.0080  0.2238 -0.1310 -0.2565
  S   H   7 -0.0507 -0.1512  0.0243  0.0855  0.1644 -0.1536  0.2348  0.0351
  S   H   8 -0.0590  0.1479  0.0586  0.0388  0.0008 -0.0618  0.5032 -0.3432
  S   H   9 -0.0673  0.0125  0.1402  0.0483  0.0455  0.0016 -0.0400  0.2393
  S   H  10  0.1642  0.1141  0.1311 -0.4949  0.1228 -0.3812 -0.1020 -0.0933
  S   H  11 -0.0992  0.0794 -0.1161  0.0943  0.4108 -0.0613  0.0146  0.1430
  S   H  12  0.0622 -0.0149  0.0239  0.1327 -0.2372  0.0682  0.0466  0.1683
  S   H  13 -0.0016  0.0227  0.0032  0.1653  0.0780 -0.3216 -0.1943 -0.0884
  S   H  14 -0.0926 -0.0064 -0.1412 -0.1000 -0.1882 -0.3043  0.2165  0.4684


              NET ATOMIC CHARGES AND DIPOLE CONTRIBUTIONS

  ATOM NO.   TYPE          CHARGE      No. of ELECS.   s-Pop       p-Pop       
    1          C          -0.165254        4.1653     1.14388     3.02137
    2          C           0.276837        3.7232     1.21632     2.50685
    3          C           0.036092        3.9639     1.18001     2.78390
    4          O          -0.305361        6.3054     1.81005     4.49531
    5          O          -0.305371        6.3054     1.86234     4.44303
    6          C          -0.144952        4.1450     1.14562     2.99933
    7          H           0.076800        0.9232     0.92320
    8          H           0.058534        0.9415     0.94147
    9          H           0.065345        0.9347     0.93466
   10          H           0.049028        0.9510     0.95097
   11          H           0.195053        0.8049     0.80495
   12          H           0.063800        0.9362     0.93620
   13          H           0.060096        0.9399     0.93990
   14          H           0.039354        0.9606     0.96065
 DIPOLE           X         Y         Z       TOTAL
 POINT-CHG.    -0.289    -0.523     2.027     2.113
 HYBRID         0.268     0.069     0.766     0.815
 SUM           -0.021    -0.454     2.793     2.830


          CARTESIAN COORDINATES 

    NO.       ATOM               X         Y         Z

     1         C                  0.0000    0.0000    0.0000
     2         C                  1.0995    1.0248   -0.0161
     3         C                  1.9985    1.0551    1.2358
     4         O                  2.6224   -0.2149    1.2955
     5         O                  1.2555    1.7935   -0.9430
     6         C                  3.0103    2.1953    1.2236
     7         H                  0.4282   -1.0117    0.0198
     8         H                 -0.6231    0.1136    0.8966
     9         H                 -0.6567    0.0682   -0.8769
    10         H                  1.3253    1.1642    2.1231
    11         H                  3.2618   -0.1694    1.9940
    12         H                  3.7141    2.1111    0.3847
    13         H                  2.5036    3.1641    1.1305
    14         H                  3.6003    2.2186    2.1500


          ATOMIC ORBITAL ELECTRON POPULATIONS

   1.14388   0.98703   1.00472   1.02962   1.21632   0.83724   0.81784   0.85177
   1.18001   0.94460   0.86509   0.97421   1.81005   1.57890   1.30735   1.60907
   1.86234   1.68025   1.38039   1.38238   1.14562   0.99284   0.98698   1.01951
   0.92320   0.94147   0.93466   0.95097   0.80495   0.93620   0.93990   0.96065

          BONDING CONTRIBUTION OF EACH M.O.

  1.3643  1.0593  1.2823  1.7344  1.7941  1.3285  1.8340  1.5933  1.6692  1.6218
  1.8527  1.5557  1.7942  1.9400  1.7343  1.7535  0.8641  0.9545 -1.8790 -2.2076
 -2.0645 -1.9458 -2.0136 -1.9991 -1.9587 -1.9756 -1.9528 -1.9811 -1.9532 -1.9510
 -1.9250 -1.9233





                    BOND ORDERS AND VALENCIES


                 C   1      C   2      C   3      O   4      O   5      C   6
 ------------------------------------------------------------------------------
     C    1   3.974908
     C    2   0.954196   3.841408
     C    3   0.032580   0.903528   3.936489
     O    4   0.001006   0.007448   0.991588   1.992351
     O    5   0.047524   1.932104   0.049178   0.007987   2.074727
     C    6   0.004011   0.004288   0.983453   0.019080   0.002203   3.973694
     H    7   0.971995   0.007939   0.000103   0.001066   0.012228   0.000002
     H    8   0.977387   0.006766   0.000081   0.000079   0.011049   0.000007
     H    9   0.984624   0.001953   0.005484   0.000038   0.002223   0.000368
     H   10   0.000060   0.006915   0.959912   0.012110   0.007411   0.004674
     H   11   0.000730   0.010145   0.002643   0.942786   0.001636   0.001470
     H   12   0.000051   0.000695   0.002294   0.001206   0.000635   0.983999
     H   13   0.000054   0.000233   0.002440   0.006973   0.000458   0.985376
     H   14   0.000690   0.005198   0.003203   0.000985   0.000089   0.984760


                 H   7      H   8      H   9      H  10      H  11      H  12
 ------------------------------------------------------------------------------
     H    7   0.994102
     H    8   0.000109   0.996574
     H    9   0.000354   0.000576   0.995730
     H   10   0.000186   0.000509   0.000003   0.997596
     H   11   0.000118   0.000009   0.000008   0.000053   0.961954
     H   12   0.000001   0.000000   0.000001   0.005598   0.000379   0.995930
     H   13   0.000000   0.000001   0.000005   0.000008   0.000034   0.000272
     H   14   0.000001   0.000000   0.000092   0.000158   0.001942   0.000797


                 H  13      H  14
 ------------------------------
     H   13   0.996388
     H   14   0.000533   0.998451

           DATA FOR GRAPH WRITTEN TO DISK
