 *******************************************************************************
 **                            MOPAC2002 (c) Fujitsu                          **
 *******************************************************************************

                              PM3 CALCULATION RESULTS


 *******************************************************************************
 *              MOPAC2002 Version 2.20CAChe    CALC.'D. Tue Jun  1 05:46:31 2004
 *                                           Microsoft(R) Windows 95/98/NT/2000.
 *  PM3      - THE PM3 HAMILTONIAN TO BE USED
 *  NOMM     - DO NOT MAKE MM CORRECTION TO CONH BARRIER
 *  PRECISE  - CRITERIA TO BE INCREASED BY 100 TIMES
 *  NODIIS   - DO NOT USE GDIIS GEOMETRY OPTIMIZER
 *  T=       - A TIME OF    10.0 DAYS    REQUESTED
 *  DUMP=N   - RESTART FILE WRITTEN EVERY  7200.000 SECONDS
 *  NOXYZ    - CARTESIAN COORDINATES NOT TO BE PRINTED
 *  GRAPH    - GENERATE FILE FOR GRAPHICS
 *******************************************************************************
 PM3 NOMM NOXYZ PRECISE NODIIS GRAPH T=10D
 Optimize geometry
 CAChe_MOPAC_coordinate_shift:     -1.968343        0.605009       -0.000050
  ATOM    CHEMICAL     BOND LENGTH    BOND ANGLE    TWIST ANGLE 
 NUMBER    SYMBOL      (ANGSTROMS)    (DEGREES)     (DEGREES) 
   (I)                   NA:I          NB:NA:I       NC:NB:NA:I       NA    NB    NC 
    1       H(  1)        0.000000      0.000000       0.000000                      
    2      XX(   )        2.036404      0.000000       0.000000        1             
    3      XX(   )        1.048284     90.000000       0.000000        2     1       
    4       O(  2)        0.950918  *  35.210632  *    0.000000  *     1     2     3 
    5       H(  3)        0.950881  * 107.795440  *    0.000380  *     4     1     2 


          CARTESIAN COORDINATES 

    NO.       ATOM           X             Y             Z

     1         H        0.00000000    0.00000000    0.00000000
     2         O        0.77693606    0.54828405    0.00000000
     3         H        1.53640404   -0.02388994   -0.00000600


      RHF CALCULATION, NO. OF DOUBLY OCCUPIED LEVELS =    4
 
    Memory needed:       28692 bytes
 Memory available:  1048576000 bytes
 
  H: (PM3): J. J. P. STEWART, J. COMP. CHEM. 10, 209 (1989).                    
  O: (PM3): J. J. P. STEWART, J. COMP. CHEM. 10, 209 (1989).                    

           EMPIRICAL FORMULA: H2 O 



      MOLECULAR POINT GROUP   :   C2v 

          DIAGONAL MATRIX USED AS START HESSIAN

 CYCLE:   1 TIME:   0.030 TIME LEFT:  1.43W  GRAD.:     0.199 HEAT:-53.43283    
 CYCLE:   2 TIME:   0.020 TIME LEFT:  1.43W  GRAD.:     0.154 HEAT:-53.43289    
 CYCLE:   3 TIME:   0.020 TIME LEFT:  1.43W  GRAD.:     0.016 HEAT:-53.43300    

     RMS GRADIENT =  0.01578  IS LESS THAN CUTOFF =  0.05000



 -------------------------------------------------------------------------------
 PM3 NOMM NOXYZ PRECISE NODIIS GRAPH T=10D
 Optimize geometry
 CAChe_MOPAC_coordinate_shift:     -1.968343        0.605009       -0.000050


     GEOMETRY OPTIMISED USING EIGENVECTOR FOLLOWING (EF).     
     SCF FIELD WAS ACHIEVED                                   


                                  PM3  CALCULATION
                                                       MOPAC2002 Version 2.20
                                                       Tue Jun  1 05:46:31 2004  




          FINAL HEAT OF FORMATION =        -53.43300 KCAL =       -223.56366 KJ


          TOTAL ENERGY            =       -324.90736 EV
          ELECTRONIC ENERGY       =       -474.29542 EV  POINT GROUP:     C2v 
          CORE-CORE REPULSION     =        149.38806 EV

          IONIZATION POTENTIAL    =         12.31659
          NO. OF FILLED LEVELS    =         4
          MOLECULAR WEIGHT        =     18.015

          MOLECULAR DIMENSIONS (Angstroms)

            Atom       Atom       Distance
            H     3    H     1     1.53567
            O     2    H     1     0.56102
            H     1    H     3     0.00000


          SCF CALCULATIONS =                4
          COMPUTATION TIME =           0.14 SECONDS
          WALL CLOCK TIME  =              0 SECONDS




  ATOM    CHEMICAL     BOND LENGTH    BOND ANGLE    TWIST ANGLE 
 NUMBER    SYMBOL      (ANGSTROMS)    (DEGREES)     (DEGREES) 
   (I)                   NA:I          NB:NA:I       NC:NB:NA:I       NA    NB    NC 
    1       H(  1)        0.000000      0.000000       0.000000                      
    2      XX(   )        2.036404      0.000000       0.000000        1             
    3      XX(   )        1.048284     90.000000       0.000000        2     1       
    4       O(  2)        0.950945  *  35.211095  *    0.000000  *     1     2     3 
    5       H(  3)        0.950964  * 107.692558  *    0.000380  *     4     1     2 


      MOLECULAR POINT GROUP   :   C2v 


                  EIGENVALUES

 -36.82586 -17.58075 -14.52342 -12.31659   4.06045   5.33160


              NET ATOMIC CHARGES AND DIPOLE CONTRIBUTIONS

  ATOM NO.   TYPE          CHARGE      No. of ELECS.   s-Pop       p-Pop       
    1          H           0.179279        0.8207     0.82072
    2          O          -0.358557        6.3586     1.76335     4.59520
    3          H           0.179278        0.8207     0.82072
 DIPOLE           X         Y         Z       TOTAL
 POINT-CHG.    -0.016    -0.966     0.000     0.966
 HYBRID        -0.013    -0.772     0.000     0.773
 SUM           -0.029    -1.738     0.000     1.739


          ATOMIC ORBITAL ELECTRON POPULATIONS

   0.82072   1.76335   1.17973   1.41547   2.00000   0.82072

           DATA FOR GRAPH WRITTEN TO DISK
 *******************************************************************************
 **                            MOPAC2002 (c) Fujitsu                          **
 *******************************************************************************

                              PM3 CALCULATION RESULTS


 *******************************************************************************
 *              MOPAC2002 Version 2.20CAChe    CALC.'D. Tue Jun  1 05:46:32 2004
 *                                           Microsoft(R) Windows 95/98/NT/2000.
 *  PM3      - THE PM3 HAMILTONIAN TO BE USED
 *  NOMM     - DO NOT MAKE MM CORRECTION TO CONH BARRIER
 *  LET      - OVERRIDE SOME SAFETY CHECKS
 *  NODIIS   - DO NOT USE GDIIS GEOMETRY OPTIMIZER
 *  FORCE    - FORCE CALCULATION SPECIFIED
 *  T=       - A TIME OF    24.0 HOURS   REQUESTED
 *  DUMP=N   - RESTART FILE WRITTEN EVERY  7200.000 SECONDS
 *  ISOTOPE  - FORCE MATRIX WRITTEN TO DISK (CHAN. 9 )
 *  DENOUT   - DENSITY MATRIX OUTPUT ON CHANNEL 10
 *  BONDS    - FINAL BOND-ORDER MATRIX TO BE PRINTED
 *  GRAPH    - GENERATE FILE FOR GRAPHICS
 *  MULLIK   - THE MULLIKEN ANALYSIS TO BE PERFORMED
 *  THERMO   - THERMODYNAMIC QUANTITIES TO BE CALCULATED
 *******************************************************************************
 FORCE PM3 NOMM MULLIK BONDS DENOUT ISOTOPE NODIIS GRAPH THERMO(200,500,50) +
 T=24H LET
 Vibrational spectrum
 
  ATOM    CHEMICAL     BOND LENGTH    BOND ANGLE    TWIST ANGLE 
 NUMBER    SYMBOL      (ANGSTROMS)    (DEGREES)     (DEGREES) 
   (I)                   NA:I          NB:NA:I       NC:NB:NA:I       NA    NB    NC 
    1       H(  1)        0.000000      0.000000       0.000000                      
    2       O(  2)        0.950945  *   0.000000       0.000000        1             
    3       H(  3)        0.950964  * 107.692544  *    0.000000        2     1       


          CARTESIAN COORDINATES 

    NO.       ATOM           X             Y             Z

     1         H        0.00000000    0.00000000    0.00000000
     2         O        0.95094500    0.00000000    0.00000000
     3         H        1.23995160    0.90598439    0.00000000


      RHF CALCULATION, NO. OF DOUBLY OCCUPIED LEVELS =    4
 
    Memory needed:       31600 bytes
 Memory available:  1048576000 bytes
 
  H: (PM3): J. J. P. STEWART, J. COMP. CHEM. 10, 209 (1989).                    
  O: (PM3): J. J. P. STEWART, J. COMP. CHEM. 10, 209 (1989).                    

           EMPIRICAL FORMULA: H2 O 



      MOLECULAR POINT GROUP   :   C2v 


          HEAT OF FORMATION =  -53.432997 KCALS/MOLE


          CARTESIAN COORDINATE DERIVATIVES

   NUMBER  ATOM     X            Y            Z

     1       H     0.011496     0.002641    -0.001618
     2       O    -0.012223    -0.013892     0.001879
     3       H     0.000726     0.011251    -0.000261


          GRADIENT NORM =   0.02480


          TIME FOR SCF CALCULATION =    0.01

          TIME FOR DERIVATIVES     =    0.01

          MOLECULAR WEIGHT =   18.02



          ROTATIONAL CONSTANTS IN CM(-1)

          A =     29.917759   B =     14.184444   C =      9.622349



          PRINCIPAL MOMENTS OF INERTIA IN UNITS OF 10**(-40)*GRAM-CM**2

          A =      0.935657   B =      1.973484   C =      2.909142


          ORIENTATION OF MOLECULE IN FORCE CALCULATION

    NO.       ATOM           X           Y           Z

     1          H      -0.913911   -0.050687    0.000000
     2          O       0.037034   -0.050687    0.000000
     3          H       0.326040    0.855297    0.000000


    FIRST DERIVATIVES WILL BE USED IN THE CALCULATION OF SECOND DERIVATIVES

          ESTIMATED TIME TO COMPLETE CALCULATION =       0.36 SECONDS

    FOR POINT-GROUP C2v  THERE ARE   4 UNIQUE SYMMETRY FUNCTIONS.

There are    6 symmetry independent variables
 STEP:   1 TIME =     0.01 SECS, INTEGRAL =      0.01 TIME LEFT:  86399.97
 STEP:   2 TIME =     0.01 SECS, INTEGRAL =      0.02 TIME LEFT:  86399.96
 STEP:   3 TIME =     0.01 SECS, INTEGRAL =      0.03 TIME LEFT:  86399.95
 STEP:   4 TIME =     0.01 SECS, INTEGRAL =      0.04 TIME LEFT:  86399.94
 STEP:   5 TIME =     0.00 SECS, INTEGRAL =      0.04 TIME LEFT:  86399.94
 STEP:   6 TIME =     0.00 SECS, INTEGRAL =      0.04 TIME LEFT:  86399.94


           FORCE MATRIX IN MILLIDYNES/ANGSTROM


                 H   1      O   2      H   3
 ------------------------------------------
     H    1   8.704087
     O    2   8.187750  12.829814
     H    3   1.118321   8.185763   8.704087


          HEAT OF FORMATION =  -53.432997 KCALS/MOLE

          ZERO POINT ENERGY      13.723 KCAL/MOL

           (To print the trivial frequences, add keyword `LARGE')


                     NORMAL COORDINATE ANALYSIS (Energies in cm**(-1))


   Root No.     1       2       3

              1A1     1B2     2A1  

             1741.9  3868.5  3989.3
  
          1 -0.0196  0.4758  0.4822
          2  0.4747  0.0000  0.0458
          3  0.0000  0.0000  0.0000
          4  0.0293 -0.0391 -0.0184
          5 -0.0402 -0.0286  0.0252
          6  0.0000  0.0000  0.0000
          7 -0.4463  0.1446 -0.1902
          8  0.1629  0.4533 -0.4455
          9  0.0000  0.0000  0.0000


           MASS-WEIGHTED COORDINATE ANALYSIS (Energies in cm**(-1))


   Root No.     1       2       3

              1A1     1B2     2A1  

             1741.9  3868.5  3989.2
  
          1 -0.0279  0.6797  0.6926
          2  0.6776  0.0000  0.0658
          3  0.0000  0.0000  0.0000
          4  0.1669 -0.2225 -0.1053
          5 -0.2284 -0.1625  0.1441
          6  0.0000  0.0000  0.0000
          7 -0.6371  0.2066 -0.2732
          8  0.2325  0.6476 -0.6399
          9  0.0000  0.0000  0.0000
1

          DESCRIPTION OF VIBRATIONS


 VIBRATION    1    1A1    ATOM PAIR     ENERGY CONTRIBUTION     RADIAL
 FREQ.     1741.90     H   1 --  O   2         50.0% ( 54.5%)     4.4%
 T-DIPOLE   0.5986     O   2 --  H   3         50.0%              4.4%
 TRAVEL     0.1524
 RED. MASS  0.5290
 EFF. MASS  1.6670

 VIBRATION    2    1B2    ATOM PAIR     ENERGY CONTRIBUTION     RADIAL
 FREQ.     3868.47     H   1 --  O   2         50.0% ( 72.5%)    96.9%
 T-DIPOLE   0.4097     O   2 --  H   3         50.0%             96.9%
 TRAVEL     0.1072
 RED. MASS  0.5225
 EFF. MASS  1.5162

 VIBRATION    3    2A1    ATOM PAIR     ENERGY CONTRIBUTION     RADIAL
 FREQ.     3989.24     H   1 --  O   2         50.0% ( 68.9%)    99.0%
 T-DIPOLE   0.3931     O   2 --  H   3         50.0%             99.0%
 TRAVEL     0.1180
 RED. MASS  0.4886
 EFF. MASS  1.2129
           SYMMETRY NUMBER FOR POINT-GROUP C2v =  2


                                                                                                                         
 Vibrational spectrum                                                                                                    


          MOLECULE IS NOT LINEAR

          THERE ARE    3 GENUINE VIBRATIONS IN THIS SYSTEM
          THIS THERMODYNAMICS CALCULATION IS LIMITED TO
          MOLECULES WHICH HAVE NO INTERNAL ROTATIONS




                    CALCULATED THERMODYNAMIC PROPERTIES
                                          *
   TEMP. (K)   PARTITION FUNCTION  H.O.F.     ENTHALPY   HEAT CAPACITY  ENTROPY
                                    KCAL/MOL   CAL/MOLE    CAL/K/MOL   CAL/K/MOL


    298  VIB.     0.1000D+01                     1.1091     0.0313     0.0042
         ROT.     0.4134D+02                   888.2854     2.9808    10.3769
         INT.     0.4135D+02                   889.3945     3.0121    10.3811
         TRA.     0.7392D+26                  1480.4756     4.9680    34.6068
         TOT.                    -53.433      2369.8701     7.9802    44.9878

    200  VIB.     0.1000D+01                     0.0180     0.0011     0.0001
         ROT.     0.2273D+02                   596.1647     2.9808     9.1882
         INT.     0.2273D+02                   596.1827     2.9820     9.1883
         TRA.     0.4065D+26                   993.6078     4.9680    32.6256
         TOT.                    -54.213      1589.7905     7.9500    41.8140

    250  VIB.     0.1000D+01                     0.2206     0.0088     0.0010
         ROT.     0.3177D+02                   745.2059     2.9808     9.8534
         INT.     0.3177D+02                   745.4264     2.9897     9.8543
         TRA.     0.5680D+26                  1242.0097     4.9680    33.7342
         TOT.                    -53.815      1987.4362     7.9577    43.5886

    300  VIB.     0.1000D+01                     1.1731     0.0327     0.0044
         ROT.     0.4176D+02                   894.2470     2.9808    10.3968
         INT.     0.4177D+02                   895.4201     3.0135    10.4012
         TRA.     0.7467D+26                  1490.4117     4.9680    34.6400
         TOT.                    -53.417      2385.8318     7.9815    45.0412

    350  VIB.     0.1001D+01                     3.8732     0.0794     0.0126
         ROT.     0.5262D+02                  1043.2882     2.9808    10.8563
         INT.     0.5266D+02                  1047.1614     3.0602    10.8690
         TRA.     0.9409D+26                  1738.8137     4.9680    35.4058
         TOT.                    -53.017      2785.9750     8.0282    46.2748

    400  VIB.     0.1002D+01                     9.5015     0.1494     0.0275
         ROT.     0.6429D+02                  1192.3294     2.9808    11.2544
         INT.     0.6441D+02                  1201.8309     3.1303    11.2819
         TRA.     0.1150D+27                  1987.2156     4.9680    36.0692
         TOT.                    -52.614      3189.0465     8.0983    47.3511

    450  VIB.     0.1004D+01                    19.1434     0.2391     0.0501
         ROT.     0.7671D+02                  1341.3705     2.9808    11.6055
         INT.     0.7701D+02                  1360.5139     3.2199    11.6556
         TRA.     0.1372D+27                  2235.6175     4.9680    36.6544
         TOT.                    -52.207      3596.1314     8.1879    48.3100

    500  VIB.     0.1007D+01                    33.6466     0.3430     0.0806
         ROT.     0.8985D+02                  1490.4117     2.9808    11.9195
         INT.     0.9045D+02                  1524.0583     3.3239    12.0001
         TRA.     0.1607D+27                  2484.0195     4.9680    37.1778
         TOT.                    -51.795      4008.0778     8.2919    49.1779

   *: NOTE: HEATS OF FORMATION ARE RELATIVE TO THE
             ELEMENTS IN THEIR STANDARD STATE AT 298K
              (=  Standard Enthalpy of Formation).
            Heat of Formation at T is calculated as [Escf + (HT - H298.15)-.

            Hvib:  Zero-point energy is not included.
                   Wi < 100 cm-1 are not included.
            Hrot = (3/2)RT
            Htra = (3/2)RT + pV = (5/2)RT

            Heat capacity is Cp, not Cv

                 See Section 8.20 in Manual for further information.   (by TH).

           FORCE CONSTANT IN INTERNAL COORDINATES (Millidynes/A)

    ATOM   CHEMICAL  BOND LENGTH      BOND ANGLE     TWIST ANGLE
   NUMBER   SYMBOL  FORCE CONSTANT  FORCE CONSTANT  FORCE CONSTANT

      1       H        0.000000        0.000000        0.000000
      2       O        8.640947        0.000000        0.000000
      3       H        8.641461        0.786557        0.000000
