 *******************************************************************************
 **                            MOPAC2002 (c) Fujitsu                          **
 *******************************************************************************

                              PM5 CALCULATION RESULTS


 *******************************************************************************
 *                  MOPAC2002 Version 1.01     CALC.'D. Tue Jun 24 11:17:37 2003
 *  PM5      - THE PM5 HAMILTONIAN TO BE USED
 *
 *
 *
 *                 CHARGE ON SYSTEM =     0
 *
 *
 *
 *  T=       - A TIME OF  3600.0 SECONDS REQUESTED
 *  DUMP=N   - RESTART FILE WRITTEN EVERY  7200.000 SECONDS
 *  RECALC=  - DO  16 CYCLES BETWEEN HESSIAN RECALC
 *  GNORM=   - EXIT WHEN GRADIENT NORM DROPS BELOW .100    
 *******************************************************************************
T=3600  RECALC=16 GNORM=0.1 PM5 CHARGE=0
 [id=NSC2593][pos=1][name=mol1]Use XYZ by default
 
   ATOM   CHEMICAL             X                Y                Z
  NUMBER   SYMBOL         (ANGSTROMS)      (ANGSTROMS)      (ANGSTROMS)
 
    1        C            0.002125201  *  -0.004099101  *  -0.004892263  *  
    2        C            1.533213859  *  -0.003762405  *  -0.005967376  *  
    3        C           -0.581833089  *   1.406617857  *   0.000597514  *  
    4        C           -0.059064600  *   2.251696326  *  -1.180858281  *  
    5        C            2.080467620  *   0.886635692  *  -1.123693733  *  
    6        C            1.481839298  *   2.293144413  *  -1.102615532  *  
    7        C            2.101320713  *   0.376902322  *   1.354917522  *  
    8        C            2.088819388  *   3.150326495  *  -2.206679369  *  
    9        C           -2.128090621  *   1.353843671  *  -0.021173944  *  
   10        O           -2.562128685  *   0.916159381  *   1.237684779  *  
   11        C           -0.566267593  *   1.764987928  *  -2.528529491  *  
   12        H           -0.357427112  *  -0.564349878  *  -0.893154065  *  
   13        H           -0.369064740  *  -0.563940589  *   0.879294855  *  
   14        H            1.864861780  *  -1.050746251  *  -0.221591408  *  
   15        H           -0.264618772  *   1.918615114  *   0.943195466  *  
   16        H           -0.429340174  *   3.297915513  *  -1.040432488  *  
   17        H            3.185699011  *   0.955167257  *  -1.040337667  *  
   18        H            1.881345113  *   0.402753013  *  -2.102516392  *  
   19        H            1.748374308  *   2.775025704  *  -0.128956369  *  
   20        H            3.203377190  *   0.327777527  *   1.349195812  *  
   21        H            1.816914511  *   1.396797492  *   1.660053573  *  
   22        H            1.740582821  *  -0.312597395  *   2.137023195  *  
   23        H            3.155128951  *   3.345395512  *  -2.000138473  *  
   24        H            2.033150801  *   2.664833732  *  -3.195033990  *  
   25        H            1.580424741  *   4.126094517  *  -2.280999065  *  
   26        H           -2.536730810  *   2.369255965  *  -0.252460058  *  
   27        H           -2.483359794  *   0.668608463  *  -0.830118112  *  
   28        H           -3.510420499  *   0.840106331  *   1.249062679  *  
   29        H           -0.171173749  *   2.383138051  *  -3.352199807  *  
   30        H           -0.282345930  *   0.720319245  *  -2.733540456  *  
   31        H           -1.665375523  *   1.830304160  *  -2.594515360  *  


          CARTESIAN COORDINATES 

    NO.       ATOM           X             Y             Z

     1         C        0.00212520   -0.00409910   -0.00489226
     2         C        1.53321386   -0.00376240   -0.00596738
     3         C       -0.58183309    1.40661786    0.00059751
     4         C       -0.05906460    2.25169633   -1.18085828
     5         C        2.08046762    0.88663569   -1.12369373
     6         C        1.48183930    2.29314441   -1.10261553
     7         C        2.10132071    0.37690232    1.35491752
     8         C        2.08881939    3.15032649   -2.20667937
     9         C       -2.12809062    1.35384367   -0.02117394
    10         O       -2.56212869    0.91615938    1.23768478
    11         C       -0.56626759    1.76498793   -2.52852949
    12         H       -0.35742711   -0.56434988   -0.89315406
    13         H       -0.36906474   -0.56394059    0.87929486
    14         H        1.86486178   -1.05074625   -0.22159141
    15         H       -0.26461877    1.91861511    0.94319547
    16         H       -0.42934017    3.29791551   -1.04043249
    17         H        3.18569901    0.95516726   -1.04033767
    18         H        1.88134511    0.40275301   -2.10251639
    19         H        1.74837431    2.77502570   -0.12895637
    20         H        3.20337719    0.32777753    1.34919581
    21         H        1.81691451    1.39679749    1.66005357
    22         H        1.74058282   -0.31259740    2.13702319
    23         H        3.15512895    3.34539551   -2.00013847
    24         H        2.03315080    2.66483373   -3.19503399
    25         H        1.58042474    4.12609452   -2.28099907
    26         H       -2.53673081    2.36925597   -0.25246006
    27         H       -2.48335979    0.66860846   -0.83011811
    28         H       -3.51042050    0.84010633    1.24906268
    29         H       -0.17117375    2.38313805   -3.35219981
    30         H       -0.28234593    0.72031924   -2.73354046
    31         H       -1.66537552    1.83030416   -2.59451536


      RHF CALCULATION, NO. OF DOUBLY OCCUPIED LEVELS =    33
 
    Memory needed:      890276 bytes
 Memory available:  1048576000 bytes
 
  H: (PM5):                                                                     
  C: (PM5):                                                                     
  O: (PM5):                                                                     

           EMPIRICAL FORMULA: C10 H20 O 



      MOLECULAR POINT GROUP   :   C1  

          DIAGONAL MATRIX USED AS START HESSIAN

 CYCLE:   1 TIME:   0.125 TIME LEFT: 60.00M  GRAD.:     0.186 HEAT:-92.28643    
 CYCLE:   2 TIME:   0.109 TIME LEFT: 60.00M  GRAD.:     0.359 HEAT:-92.28643    
 CYCLE:   3 TIME:   0.125 TIME LEFT: 59.99M  GRAD.:     0.504 HEAT:-92.28643    
 CYCLE:   4 TIME:   0.141 TIME LEFT: 59.99M  GRAD.:     0.409 HEAT:-92.28647    
 CYCLE:   5 TIME:   0.078 TIME LEFT: 59.99M  GRAD.:     0.896 HEAT:-92.28632    
 CYCLE:   6 TIME:   0.125 TIME LEFT: 59.99M  GRAD.:     0.542 HEAT:-92.28648    
 CYCLE:   7 TIME:   0.125 TIME LEFT: 59.99M  GRAD.:     1.245 HEAT:-92.28603    
 CYCLE:   8 TIME:   0.125 TIME LEFT: 59.98M  GRAD.:     0.672 HEAT:-92.28644    
 CYCLE:   9 TIME:   0.156 TIME LEFT: 59.98M  GRAD.:     1.839 HEAT:-92.28556    
 CYCLE:  10 TIME:   0.125 TIME LEFT: 59.98M  GRAD.:     0.985 HEAT:-92.28629    
 CYCLE:  11 TIME:   0.125 TIME LEFT: 59.98M  GRAD.:     2.733 HEAT:-92.28391    
 CYCLE:  12 TIME:   0.094 TIME LEFT: 59.98M  GRAD.:     0.707 HEAT:-92.28648    
 CYCLE:  13 TIME:   0.094 TIME LEFT: 59.97M  GRAD.:     3.512 HEAT:-92.28304    
 CYCLE:  14 TIME:   0.109 TIME LEFT: 59.97M  GRAD.:     0.729 HEAT:-92.28649    
 CYCLE:  15 TIME:   0.172 TIME LEFT: 59.97M  GRAD.:     3.150 HEAT:-92.28376    
 CYCLE:  16 TIME:   0.109 TIME LEFT: 59.97M  GRAD.:     1.081 HEAT:-92.28632    

          HESSIAN CALCULATED NUMERICALLY

 CYCLE:  17 TIME:   7.766 TIME LEFT: 59.84M  GRAD.:     4.551 HEAT:-92.28013    
 CYCLE:  18 TIME:   0.125 TIME LEFT: 59.84M  GRAD.:     0.124 HEAT:-92.28704    
 CYCLE:  19 TIME:   0.141 TIME LEFT: 59.83M  GRAD.:     0.044 HEAT:-92.28702    

     RMS GRADIENT =  0.04443  IS LESS THAN CUTOFF =  0.10000



 -------------------------------------------------------------------------------
T=3600  RECALC=16 GNORM=0.1 PM5 CHARGE=0
 [id=NSC2593][pos=1][name=mol1]Use XYZ by default
 


     GEOMETRY OPTIMISED USING EIGENVECTOR FOLLOWING (EF).     
     SCF FIELD WAS ACHIEVED                                   


                                  PM5  CALCULATION
                                                       MOPAC2002 Version 1.01
                                                       Tue Jun 24 11:18:34 2003  




          FINAL HEAT OF FORMATION =        -92.28702 KCAL =       -386.12890 KJ


          TOTAL ENERGY            =      -1772.20852 EV
          ELECTRONIC ENERGY       =     -11222.95021 EV  POINT GROUP:     C1  
          CORE-CORE REPULSION     =       9450.74170 EV

          IONIZATION POTENTIAL    =         10.12766
          NO. OF FILLED LEVELS    =        33
          MOLECULAR WEIGHT        =    156.267

          MOLECULAR DIMENSIONS (Angstroms)

            Atom       Atom       Distance
            H    28    H    20     7.82584
            H    22    H    25     6.23697
            H    30    H    21     3.67701


          SCF CALCULATIONS =              113
          COMPUTATION TIME =          10.05 SECONDS
          WALL CLOCK TIME  =             58 SECONDS




   ATOM   CHEMICAL             X                Y                Z
  NUMBER   SYMBOL         (ANGSTROMS)      (ANGSTROMS)      (ANGSTROMS)
 
    1        C            0.002191640  *  -0.004309067  *  -0.004390729  *  
    2        C            1.533389094  *  -0.003940657  *  -0.006393928  *  
    3        C           -0.581696176  *   1.406448262  *   0.000813969  *  
    4        C           -0.058922947  *   2.251004211  *  -1.181016820  *  
    5        C            2.080077271  *   0.886297988  *  -1.124654781  *  
    6        C            1.481881046  *   2.292922947  *  -1.102296984  *  
    7        C            2.102083464  *   0.377353401  *   1.354067710  *  
    8        C            2.088366233  *   3.151959386  *  -2.205111208  *  
    9        C           -2.127938909  *   1.355040012  *  -0.021119913  *  
   10        O           -2.562827494  *   0.915403222  *   1.236736672  *  
   11        C           -0.565858612  *   1.762872421  *  -2.528359664  *  
   12        H           -0.358019162  *  -0.565186837  *  -0.891995283  *  
   13        H           -0.368584062  *  -0.563675799  *   0.880262702  *  
   14        H            1.864955365  *  -1.050992005  *  -0.221817238  *  
   15        H           -0.264463032  *   1.918537917  *   0.943339954  *  
   16        H           -0.429554501  *   3.297251340  *  -1.041593567  *  
   17        H            3.185409931  *   0.954138009  *  -1.042513649  *  
   18        H            1.879569361  *   0.402942519  *  -2.103443776  *  
   19        H            1.748604043  *   2.773670008  *  -0.128125790  *  
   20        H            3.204106565  *   0.327525222  *   1.348141858  *  
   21        H            1.818696536  *   1.397698830  *   1.658553592  *  
   22        H            1.740939732  *  -0.311205032  *   2.136787749  *  
   23        H            3.154144422  *   3.348555534  *  -1.997584008  *  
   24        H            2.034081013  *   2.667292162  *  -3.193946756  *  
   25        H            1.578007835  *   4.126832108  *  -2.278979377  *  
   26        H           -2.535194329  *   2.371478539  *  -0.250420053  *  
   27        H           -2.484342938  *   0.671888012  *  -0.831296455  *  
   28        H           -3.511416225  *   0.842817375  *   1.248234205  *  
   29        H           -0.165943893  *   2.376215245  *  -3.353293884  *  
   30        H           -0.287343487  *   0.716020623  *  -2.729684442  *  
   31        H           -1.664463658  *   1.833906569  *  -2.596509834  *  


      MOLECULAR POINT GROUP   :   C1  


                  EIGENVALUES

 -37.25818 -35.23644 -32.25345 -31.23808 -27.63105 -26.11196 -25.41850 -24.49147
 -20.76936 -20.52725 -17.90582 -17.01359 -15.68002 -15.35244 -14.99012 -14.55606
 -14.35141 -13.75738 -13.53458 -12.94204 -12.81925 -12.41784 -12.31897 -12.01009
 -11.91232 -11.52401 -11.49196 -11.15906 -10.88262 -10.56183 -10.45885 -10.33846
 -10.12766   1.76303   3.16052   3.17683   3.33362   3.38028   3.45996   3.53929
   3.60202   3.68185   3.70697   3.85837   3.91550   3.97279   4.03045   4.05203
   4.15376   4.26162   4.35142   4.37620   4.41695   4.46946   4.53091   4.61656
   4.68619   4.75247   4.89071   5.07860   5.08628   5.14176   5.17548   5.25906


              NET ATOMIC CHARGES AND DIPOLE CONTRIBUTIONS

  ATOM NO.   TYPE          CHARGE      No. of ELECS.   s-Pop       p-Pop       
    1          C          -0.191771        4.1918     1.26729     2.92449
    2          C          -0.077618        4.0776     1.25199     2.82563
    3          C          -0.102290        4.1023     1.26329     2.83900
    4          C          -0.089445        4.0894     1.25914     2.83031
    5          C          -0.198399        4.1984     1.26881     2.92959
    6          C          -0.084835        4.0848     1.25510     2.82974
    7          C          -0.287628        4.2876     1.27146     3.01617
    8          C          -0.287716        4.2877     1.27141     3.01630
    9          C          -0.049926        4.0499     1.27137     2.77856
   10          O          -0.440398        6.4404     1.83554     4.60485
   11          C          -0.284139        4.2841     1.26937     3.01477
   12          H           0.092614        0.9074     0.90739
   13          H           0.113575        0.8864     0.88643
   14          H           0.092663        0.9073     0.90734
   15          H           0.123397        0.8766     0.87660
   16          H           0.095070        0.9049     0.90493
   17          H           0.096212        0.9038     0.90379
   18          H           0.096490        0.9035     0.90351
   19          H           0.099794        0.9002     0.90021
   20          H           0.090792        0.9092     0.90921
   21          H           0.096261        0.9037     0.90374
   22          H           0.096178        0.9038     0.90382
   23          H           0.093201        0.9068     0.90680
   24          H           0.094636        0.9054     0.90536
   25          H           0.094784        0.9052     0.90522
   26          H           0.085330        0.9147     0.91467
   27          H           0.087358        0.9126     0.91264
   28          H           0.265244        0.7348     0.73476
   29          H           0.095643        0.9044     0.90436
   30          H           0.099244        0.9008     0.90076
   31          H           0.085680        0.9143     0.91432
 DIPOLE           X         Y         Z       TOTAL
 POINT-CHG.     0.007     0.348    -1.212     1.261
 HYBRID        -0.566     0.013    -0.180     0.594
 SUM           -0.559     0.361    -1.392     1.543


          CARTESIAN COORDINATES 

    NO.       ATOM               X         Y         Z

     1         C                  0.0022   -0.0043   -0.0044
     2         C                  1.5334   -0.0039   -0.0064
     3         C                 -0.5817    1.4064    0.0008
     4         C                 -0.0589    2.2510   -1.1810
     5         C                  2.0801    0.8863   -1.1247
     6         C                  1.4819    2.2929   -1.1023
     7         C                  2.1021    0.3774    1.3541
     8         C                  2.0884    3.1520   -2.2051
     9         C                 -2.1279    1.3550   -0.0211
    10         O                 -2.5628    0.9154    1.2367
    11         C                 -0.5659    1.7629   -2.5284
    12         H                 -0.3580   -0.5652   -0.8920
    13         H                 -0.3686   -0.5637    0.8803
    14         H                  1.8650   -1.0510   -0.2218
    15         H                 -0.2645    1.9185    0.9433
    16         H                 -0.4296    3.2973   -1.0416
    17         H                  3.1854    0.9541   -1.0425
    18         H                  1.8796    0.4029   -2.1034
    19         H                  1.7486    2.7737   -0.1281
    20         H                  3.2041    0.3275    1.3481
    21         H                  1.8187    1.3977    1.6586
    22         H                  1.7409   -0.3112    2.1368
    23         H                  3.1541    3.3486   -1.9976
    24         H                  2.0341    2.6673   -3.1939
    25         H                  1.5780    4.1268   -2.2790
    26         H                 -2.5352    2.3715   -0.2504
    27         H                 -2.4843    0.6719   -0.8313
    28         H                 -3.5114    0.8428    1.2482
    29         H                 -0.1659    2.3762   -3.3533
    30         H                 -0.2873    0.7160   -2.7297
    31         H                 -1.6645    1.8339   -2.5965


          ATOMIC ORBITAL ELECTRON POPULATIONS

   1.26729   0.93807   0.95161   1.03481   1.25199   0.92678   0.97785   0.92099
   1.26329   0.89252   0.95854   0.98794   1.25914   0.93644   0.97794   0.91593
   1.26881   0.99966   0.94414   0.98579   1.25510   0.91802   0.93546   0.97626
   1.27146   1.01476   1.03293   0.96848   1.27141   1.01628   1.00404   0.99598
   1.27137   0.96042   0.99192   0.82622   1.83554   1.32250   1.90433   1.37803
   1.26937   1.01327   1.03152   0.96997   0.90739   0.88643   0.90734   0.87660
   0.90493   0.90379   0.90351   0.90021   0.90921   0.90374   0.90382   0.90680
   0.90536   0.90522   0.91467   0.91264   0.73476   0.90436   0.90076   0.91432
