
     Program PWSCF v.4.2.1      starts on 17Dec2010 at 16: 3:55 

     This program is part of the open-source Quantum ESPRESSO suite
     for quantum simulation of materials; please acknowledge
         "P. Giannozzi et al., J. Phys.:Condens. Matter 21 395502 (2009);
          URL http://www.quantum-espresso.org", 
     in publications or presentations arising from this work. More details at
     http://www.quantum-espresso.org/wiki/index.php/Citing_Quantum-ESPRESSO

     Parallel version (MPI), running on    16 processors
     R & G space division:  proc/pool =   16

     Current dimensions of program PWSCF are:
     Max number of different atomic species (ntypx) = 10
     Max number of k-points (npk) =  40000
     Max angular momentum in pseudopotentials (lmaxx) =  3
     Waiting for input...

     Subspace diagonalization in iterative solution of the eigenvalue problem:
     a serial algorithm will be used

     warning: symmetry operation #  2 not allowed.   fractional translation:
       0.0000000  0.0000000 -0.5000000  in crystal coordinates
     warning: symmetry operation #  5 not allowed.   fractional translation:
       0.0000000  0.0000000 -0.5000000  in crystal coordinates
     warning: symmetry operation #  6 not allowed.   fractional translation:
       0.0000000  0.0000000 -0.5000000  in crystal coordinates

     Planes per process (thick) : nr3 =  75 npp =    5 ncplane = 11664
     Planes per process (smooth): nr3s=  54 npps=    4 ncplanes=  5184
 
     Proc/  planes cols     G    planes cols    G      columns  G
     Pool       (dense grid)       (smooth grid)      (wavefct grid)
        1     5    427    21347    4    214     7560     60     1094
        2     5    427    21347    4    214     7560     60     1094
        3     5    427    21347    4    214     7560     60     1094
        4     5    427    21347    4    214     7562     60     1094
        5     5    427    21347    4    214     7562     60     1094
        6     5    428    21348    4    214     7556     59     1093
        7     5    428    21348    3    214     7554     59     1093
        8     5    428    21348    3    214     7550     59     1093
        9     5    427    21347    3    214     7556     59     1093
       10     5    428    21348    3    214     7554     59     1093
       11     5    428    21348    3    214     7544     59     1093
       12     4    428    21348    3    215     7551     59     1093
       13     4    428    21348    3    215     7555     59     1093
       14     4    428    21348    3    215     7555     61     1093
       15     4    428    21348    3    214     7554     61     1093
       16     4    427    21345    3    214     7554     61     1093
     tot     75   6841   341559   54   3427   120887    955    17493
 

     Title: 
     HAP_fullopt_40_r1.fullopt.in                                               


     bravais-lattice index     =            4
     lattice parameter (a_0)   =      17.6285  a.u.
     unit-cell volume          =    3534.3479 (a.u.)^3
     number of atoms/cell      =           44
     number of atomic types    =            4
     number of electrons       =       288.00
     number of Kohn-Sham states=          144
     kinetic-energy cutoff     =      40.0000  Ry
     charge density cutoff     =     320.0000  Ry
     convergence threshold     =      1.0E-08
     mixing beta               =       0.7000
     number of iterations used =            8  plain     mixing
     Exchange-correlation      =  SLA  PW   PBE  PBE (1434)
     EXX-fraction              =        0.00
     nstep                     =           50


     celldm(1)=  17.628530  celldm(2)=   0.000000  celldm(3)=   0.744955
     celldm(4)=   0.000000  celldm(5)=   0.000000  celldm(6)=   0.000000

     crystal axes: (cart. coord. in units of a_0)
               a(1) = (  1.000000  0.000000  0.000000 )  
               a(2) = ( -0.500000  0.866025  0.000000 )  
               a(3) = (  0.000000  0.000000  0.744955 )  

     reciprocal axes: (cart. coord. in units 2 pi/a_0)
               b(1) = (  1.000000  0.577350  0.000000 )  
               b(2) = (  0.000000  1.154701  0.000000 )  
               b(3) = (  0.000000  0.000000  1.342362 )  


     PseudoPot. # 1 for Ca read from file Ca.pbe-nsp-van.UPF
     Pseudo is Ultrasoft + core correction, Zval = 10.0
     Generated by new atomic code, or converted to UPF format
     Using radial grid of  845 points,  6 beta functions with: 
                l(1) =   0
                l(2) =   0
                l(3) =   1
                l(4) =   1
                l(5) =   2
                l(6) =   2
     Q(r) pseudized with  6 coefficients,  rinner =    1.200   1.200   1.200
                                                       1.200   1.200

     PseudoPot. # 2 for P  read from file P.pbe-van_ak.UPF
     Pseudo is Ultrasoft, Zval =  5.0
     Generated by new atomic code, or converted to UPF format
     Using radial grid of  807 points,  6 beta functions with: 
                l(1) =   0
                l(2) =   0
                l(3) =   1
                l(4) =   1
                l(5) =   2
                l(6) =   2
     Q(r) pseudized with  8 coefficients,  rinner =    1.100   1.100   1.100
                                                       1.100   1.100

     PseudoPot. # 3 for O  read from file O.pbe-van_ak.UPF
     Pseudo is Ultrasoft, Zval =  6.0
     Generated by new atomic code, or converted to UPF format
     Using radial grid of  737 points,  4 beta functions with: 
                l(1) =   0
                l(2) =   0
                l(3) =   1
                l(4) =   1
     Q(r) pseudized with  8 coefficients,  rinner =    0.800   0.800   0.800


     PseudoPot. # 4 for H  read from file H.pbe-van_ak.UPF
     Pseudo is Ultrasoft, Zval =  1.0
     Generated by new atomic code, or converted to UPF format
     Using radial grid of  615 points,  1 beta functions with: 
                l(1) =   0
     Q(r) pseudized with  8 coefficients,  rinner =    0.800

     atomic species   valence    mass     pseudopotential
        Ca            10.00    20.00000     Ca( 1.00)
        P              5.00    15.00000     P ( 1.00)
        O              6.00     8.00000     O ( 1.00)
        H              1.00     1.00000     H ( 1.00)

      3 Sym.Ops. (no inversion)


   Cartesian axes

     site n.     atom                  positions (a_0 units)
         1           Ca  tau(  1) = (   0.5000000  -0.2886751  -0.0018296  )
         2           Ca  tau(  2) = (  -0.5000000   0.2886751   0.3706481  )
         3           Ca  tau(  3) = (  -0.5000000   0.2886751   0.0001849  )
         4           Ca  tau(  4) = (   0.5000000  -0.2886751  -0.3722928  )
         5           Ca  tau(  5) = (   0.2493986  -0.0086855   0.1856962  )
         6           Ca  tau(  6) = (  -0.2493986   0.0086855  -0.1867815  )
         7           Ca  tau(  7) = (  -0.1171775   0.2203283   0.1856962  )
         8           Ca  tau(  8) = (  -0.1322212  -0.2116428   0.1856962  )
         9           Ca  tau(  9) = (   0.1322212   0.2116428  -0.1867815  )
        10           Ca  tau( 10) = (   0.1171775  -0.2203283  -0.1867815  )
        11           P   tau( 11) = (   0.2113966   0.3167948   0.1866531  )
        12           P   tau( 12) = (  -0.2113966  -0.3167948  -0.1858247  )
        13           P   tau( 13) = (  -0.3800506   0.0246774   0.1866531  )
        14           P   tau( 14) = (   0.1686540  -0.3414722   0.1866531  )
        15           P   tau( 15) = (  -0.1686540   0.3414722  -0.1858247  )
        16           P   tau( 16) = (   0.3800506  -0.0246774  -0.1858247  )
        17           O   tau( 17) = (   0.0777730   0.4158784   0.1885511  )
        18           O   tau( 18) = (  -0.0777730  -0.4158784  -0.1839267  )
        19           O   tau( 19) = (  -0.3990478  -0.1405859   0.1885511  )
        20           O   tau( 20) = (   0.3212748  -0.2752926   0.1885511  )
        21           O   tau( 21) = (  -0.3212748   0.2752926  -0.1839267  )
        22           O   tau( 22) = (   0.3990478   0.1405859  -0.1839267  )
        23           O   tau( 23) = (  -0.6464895   0.4034239   0.1810726  )
        24           O   tau( 24) = (   0.6464895  -0.4034239  -0.1914051  )
        25           O   tau( 25) = (  -0.5261306   0.1044372   0.1810726  )
        26           O   tau( 26) = (  -0.3273799   0.3581643   0.1810726  )
        27           O   tau( 27) = (   0.3273799  -0.3581643  -0.1914051  )
        28           O   tau( 28) = (   0.5261306  -0.1044372  -0.1914051  )
        29           O   tau( 29) = (   0.2077025   0.2164083   0.0548754  )
        30           O   tau( 30) = (  -0.2077025  -0.2164083  -0.3176023  )
        31           O   tau( 31) = (  -0.2912664   0.0716715   0.0548754  )
        32           O   tau( 32) = (   0.0835638  -0.2880798   0.0548754  )
        33           O   tau( 33) = (  -0.0835638   0.2880798  -0.3176023  )
        34           O   tau( 34) = (   0.2912664  -0.0716715  -0.3176023  )
        35           O   tau( 35) = (  -0.2199308  -0.2222259  -0.0503244  )
        36           O   tau( 36) = (   0.2199308   0.2222259   0.3221533  )
        37           O   tau( 37) = (   0.3024187  -0.0793527  -0.0503244  )
        38           O   tau( 38) = (  -0.0824879   0.3015786  -0.0503244  )
        39           O   tau( 39) = (   0.0824879  -0.3015786   0.3221533  )
        40           O   tau( 40) = (  -0.3024187   0.0793527   0.3221533  )
        41           O   tau( 41) = (   0.0000000   0.0000000  -0.1559697  )
        42           O   tau( 42) = (   0.0000000   0.0000000   0.2165080  )
        43           H   tau( 43) = (   0.0000000   0.0000000  -0.0519538  )
        44           H   tau( 44) = (   0.0000000   0.0000000   0.3205239  )

     number of k points=    14
                       cart. coord. in units 2pi/a_0
        k(    1) = (   0.0000000   0.0000000   0.0000000), wk =   0.0312500
        k(    2) = (   0.0000000   0.0000000   0.3355905), wk =   0.0625000
        k(    3) = (   0.0000000   0.0000000  -0.6711810), wk =   0.0312500
        k(    4) = (   0.0000000   0.2886751   0.0000000), wk =   0.1875000
        k(    5) = (   0.0000000   0.2886751   0.3355905), wk =   0.1875000
        k(    6) = (   0.0000000   0.2886751  -0.6711810), wk =   0.1875000
        k(    7) = (   0.0000000  -0.5773503   0.0000000), wk =   0.0937500
        k(    8) = (   0.0000000  -0.5773503   0.3355905), wk =   0.1875000
        k(    9) = (   0.0000000  -0.5773503  -0.6711810), wk =   0.0937500
        k(   10) = (   0.2500000   0.4330127   0.0000000), wk =   0.1875000
        k(   11) = (   0.2500000   0.4330127   0.3355905), wk =   0.1875000
        k(   12) = (   0.2500000   0.4330127  -0.6711810), wk =   0.1875000
        k(   13) = (  -0.2500000   0.1443376   0.3355905), wk =   0.1875000
        k(   14) = (   0.2500000  -0.4330127  -0.3355905), wk =   0.1875000

     G cutoff = 2518.9669  ( 341559 G-vectors)     FFT grid: (108,108, 75)
     G cutoff = 1259.4835  ( 120887 G-vectors)  smooth grid: ( 72, 72, 54)

     Largest allocated arrays     est. size (Mb)     dimensions
        Kohn-Sham Wavefunctions         2.10 Mb     (    954, 144)
        NL pseudopotentials             7.25 Mb     (    954, 498)
        Each V/rho on FFT grid          0.89 Mb     (  58320)
        Each G-vector array             0.16 Mb     (  21347)
        G-vector shells                 0.16 Mb     (  21347)
     Largest temporary arrays     est. size (Mb)     dimensions
        Auxiliary wavefunctions         8.38 Mb     (    954, 576)
        Each subspace H/S matrix        5.06 Mb     (    576, 576)
        Each <psi_i|beta_j> matrix      1.09 Mb     (    498, 144)
        Arrays for rho mixing           7.12 Mb     (  58320,   8)

     Check: negative/imaginary core charge=   -0.000003    0.000000

     Initial potential from superposition of free atoms
     Check: negative starting charge=   -0.001889

     starting charge  287.94459, renormalised to  288.00000

     negative rho (up, down):  0.189E-02 0.000E+00
     Starting wfc are  230 atomic wfcs

     total cpu time spent up to now is     42.32 secs

     per-process dynamical memory:    97.7 Mb

     Self-consistent Calculation

     iteration #  1     ecut=    40.00 Ry     beta=0.70
     Davidson diagonalization with overlap
     ethr =  1.00E-04,  avg # of iterations =  4.0

     negative rho (up, down):  0.192E-02 0.000E+00

     total cpu time spent up to now is    181.18 secs

     total energy              =   -1664.42638508 Ry
     Harris-Foulkes estimate   =   -1670.64310923 Ry
     estimated scf accuracy    <       8.85764835 Ry

     iteration #  2     ecut=    40.00 Ry     beta=0.70
     Davidson diagonalization with overlap
     ethr =  3.08E-03,  avg # of iterations =  3.1

     negative rho (up, down):  0.168E-02 0.000E+00

     total cpu time spent up to now is    283.08 secs

     total energy              =   -1666.34513979 Ry
     Harris-Foulkes estimate   =   -1670.65568438 Ry
     estimated scf accuracy    <       8.95094776 Ry

     iteration #  3     ecut=    40.00 Ry     beta=0.70
     Davidson diagonalization with overlap
     ethr =  3.08E-03,  avg # of iterations =  3.0

     negative rho (up, down):  0.172E-02 0.000E+00

     total cpu time spent up to now is    375.65 secs

     total energy              =   -1668.15853845 Ry
     Harris-Foulkes estimate   =   -1668.18625785 Ry
     estimated scf accuracy    <       0.07916889 Ry

     iteration #  4     ecut=    40.00 Ry     beta=0.70
     Davidson diagonalization with overlap
     ethr =  2.75E-05,  avg # of iterations =  4.0

     negative rho (up, down):  0.173E-02 0.000E+00

     total cpu time spent up to now is    490.91 secs

     total energy              =   -1668.19588784 Ry
     Harris-Foulkes estimate   =   -1668.22460945 Ry
     estimated scf accuracy    <       0.06968319 Ry

     iteration #  5     ecut=    40.00 Ry     beta=0.70
     Davidson diagonalization with overlap
     ethr =  2.42E-05,  avg # of iterations =  3.0

     negative rho (up, down):  0.172E-02 0.000E+00

     total cpu time spent up to now is    569.12 secs

     total energy              =   -1668.20712782 Ry
     Harris-Foulkes estimate   =   -1668.20800371 Ry
     estimated scf accuracy    <       0.00207874 Ry

     iteration #  6     ecut=    40.00 Ry     beta=0.70
     Davidson diagonalization with overlap
     ethr =  7.22E-07,  avg # of iterations =  3.0

     negative rho (up, down):  0.173E-02 0.000E+00

     total cpu time spent up to now is    668.11 secs

     total energy              =   -1668.20784282 Ry
     Harris-Foulkes estimate   =   -1668.20794271 Ry
     estimated scf accuracy    <       0.00022033 Ry

     iteration #  7     ecut=    40.00 Ry     beta=0.70
     Davidson diagonalization with overlap
     ethr =  7.65E-08,  avg # of iterations =  3.0

     negative rho (up, down):  0.173E-02 0.000E+00

     total cpu time spent up to now is    763.32 secs

     total energy              =   -1668.20789766 Ry
     Harris-Foulkes estimate   =   -1668.20792129 Ry
     estimated scf accuracy    <       0.00005748 Ry

     iteration #  8     ecut=    40.00 Ry     beta=0.70
     Davidson diagonalization with overlap
     ethr =  2.00E-08,  avg # of iterations =  3.0

     negative rho (up, down):  0.173E-02 0.000E+00

     total cpu time spent up to now is    859.35 secs

     total energy              =   -1668.20791184 Ry
     Harris-Foulkes estimate   =   -1668.20791893 Ry
     estimated scf accuracy    <       0.00001782 Ry

     iteration #  9     ecut=    40.00 Ry     beta=0.70
     Davidson diagonalization with overlap
     ethr =  6.19E-09,  avg # of iterations =  3.0

     negative rho (up, down):  0.173E-02 0.000E+00

     total cpu time spent up to now is    946.19 secs

     total energy              =   -1668.20791554 Ry
     Harris-Foulkes estimate   =   -1668.20791553 Ry
     estimated scf accuracy    <       0.00000041 Ry

     iteration # 10     ecut=    40.00 Ry     beta=0.70
     Davidson diagonalization with overlap
     ethr =  1.42E-10,  avg # of iterations =  4.0

     negative rho (up, down):  0.173E-02 0.000E+00

     total cpu time spent up to now is   1072.61 secs

     total energy              =   -1668.20791577 Ry
     Harris-Foulkes estimate   =   -1668.20791579 Ry
     estimated scf accuracy    <       0.00000007 Ry

     iteration # 11     ecut=    40.00 Ry     beta=0.70
     Davidson diagonalization with overlap
     ethr =  2.28E-11,  avg # of iterations =  3.0

     negative rho (up, down):  0.173E-02 0.000E+00

     total cpu time spent up to now is   1167.26 secs

     total energy              =   -1668.20791579 Ry
     Harris-Foulkes estimate   =   -1668.20791579 Ry
     estimated scf accuracy    <       0.00000002 Ry

     iteration # 12     ecut=    40.00 Ry     beta=0.70
     Davidson diagonalization with overlap
     ethr =  5.65E-12,  avg # of iterations =  3.0

     negative rho (up, down):  0.173E-02 0.000E+00

     total cpu time spent up to now is   1256.64 secs

     End of self-consistent calculation

          k = 0.0000 0.0000 0.0000 ( 15069 PWs)   bands (ev):

   -31.8592 -31.8591 -31.7435 -31.7434 -31.3484 -31.3425 -31.3425 -31.3420
   -31.3393 -31.3393 -14.2594 -14.2283 -14.2283 -14.1305 -14.0561 -14.0561
   -13.4530 -13.0861 -13.0861 -13.0630 -12.9185 -12.9185 -12.8958 -12.8904
   -12.8815 -12.8815 -12.8286 -12.8286 -12.7902 -12.7215 -12.7159 -12.6643
   -12.6643 -12.5760 -12.5760 -12.5636 -12.5636 -12.5007 -12.5007 -12.4929
   -12.4775 -12.4296 -12.3229 -12.3229 -12.3014 -12.3014 -11.4657 -11.3528
   -11.3528 -11.2643 -11.2643 -11.1976 -11.0354 -11.0354 -11.0160 -10.9906
   -10.9906 -10.9431 -10.9367 -10.9056 -10.9056 -10.7852 -10.7852 -10.7605
   -10.5866 -10.4682  -1.2031  -0.8539  -0.8539  -0.6858  -0.6749  -0.6749
     0.9719   0.9734   0.9878   0.9878   1.1448   1.1448   1.2154   1.3253
     1.3253   1.3825   1.4633   1.5110   1.5119   1.5119   1.6831   1.6831
     1.7569   1.7924   1.7924   2.2988   2.9675   3.0205   3.2656   3.2656
     3.3449   3.5125   3.5125   3.5267   3.5468   3.6583   3.6583   3.7044
     3.7044   3.7285   3.7285   3.8240   3.8240   3.8333   4.0962   4.1771
     4.1771   4.2390   4.2390   4.3014   4.3014   4.4052   4.4715   4.5455
     4.5455   4.8476   5.0375   5.0375   5.0464   5.0863   5.0863   5.3030
     5.3237   5.3237   5.3320   5.3320   5.4173   5.6030   5.6030   5.6907
     5.7116   5.7116   5.7611   5.7916   5.7916   5.9712   5.9876   5.9876

          k = 0.0000 0.0000 0.3356 ( 15098 PWs)   bands (ev):

   -31.8585 -31.8584 -31.7442 -31.7442 -31.3475 -31.3429 -31.3421 -31.3420
   -31.3398 -31.3398 -14.2492 -14.2221 -14.2170 -14.1602 -14.1040 -14.0988
   -13.3810 -13.1004 -13.0935 -13.0749 -13.0026 -12.9468 -12.9327 -12.9230
   -12.8582 -12.8542 -12.8321 -12.8182 -12.7972 -12.7652 -12.6719 -12.6022
   -12.5931 -12.5920 -12.5893 -12.5352 -12.5335 -12.5033 -12.4448 -12.4424
   -12.4355 -12.3835 -12.3194 -12.3152 -12.2990 -12.2984 -11.3678 -11.3300
   -11.3141 -11.2478 -11.2284 -11.1432 -11.1024 -11.0715 -11.0432 -11.0316
   -11.0095 -11.0087 -10.9991 -10.9269 -10.9154 -10.8523 -10.8406 -10.8062
   -10.5653 -10.4848  -1.1132  -0.8041  -0.7759  -0.7474  -0.6773  -0.6449
     1.0260   1.0409   1.0614   1.0746   1.0930   1.1180   1.2418   1.3531
     1.4032   1.4134   1.4240   1.5261   1.5406   1.5949   1.6798   1.6864
     1.7098   1.7233   1.8193   2.1176   2.9868   2.9956   3.1962   3.2170
     3.3791   3.4467   3.4477   3.4699   3.5515   3.5544   3.5844   3.6552
     3.6711   3.6844   3.7455   3.8403   3.8665   3.9476   4.0934   4.2385
     4.2424   4.2499   4.2531   4.3021   4.3474   4.3850   4.4415   4.5279
     4.5421   4.5919   4.9917   5.0619   5.0703   5.0858   5.0877   5.3312
     5.3317   5.3366   5.3410   5.3752   5.4697   5.5147   5.5417   5.6532
     5.7062   5.7439   5.7855   5.8094   5.8457   5.8980   5.9489   5.9498

          k = 0.0000 0.0000-0.6712 ( 15086 PWs)   bands (ev):

   -31.8577 -31.8576 -31.7450 -31.7450 -31.3452 -31.3452 -31.3410 -31.3410
   -31.3409 -31.3409 -14.2144 -14.2144 -14.1814 -14.1814 -14.1744 -14.1744
   -13.1878 -13.1878 -13.0643 -13.0643 -13.0220 -13.0220 -13.0111 -13.0111
   -12.8628 -12.8628 -12.8393 -12.8393 -12.8123 -12.8123 -12.5835 -12.5835
   -12.5710 -12.5710 -12.5326 -12.5326 -12.4311 -12.4311 -12.4244 -12.4244
   -12.3710 -12.3710 -12.3068 -12.3068 -12.2954 -12.2954 -11.2635 -11.2635
   -11.2442 -11.2442 -11.1848 -11.1848 -11.1102 -11.1102 -11.0994 -11.0994
   -11.0828 -11.0828 -10.9309 -10.9308 -10.9270 -10.9270 -10.9172 -10.9172
   -10.5240 -10.5240  -0.9162  -0.9162  -0.7083  -0.7083  -0.6653  -0.6653
     1.0716   1.0716   1.1033   1.1033   1.1932   1.1932   1.2723   1.2723
     1.5316   1.5316   1.5432   1.5432   1.5550   1.5550   1.6233   1.6233
     1.6442   1.6442   1.8821   1.8822   3.0044   3.0044   3.2292   3.2292
     3.2552   3.2552   3.3328   3.3328   3.5649   3.5649   3.6090   3.6090
     3.7704   3.7704   3.7981   3.7981   3.9535   3.9535   4.0943   4.0943
     4.2749   4.2749   4.2943   4.2943   4.3706   4.3707   4.4341   4.4341
     4.4801   4.4801   5.0116   5.0116   5.0606   5.0606   5.1974   5.1974
     5.3669   5.3669   5.3997   5.3997   5.5200   5.5201   5.6045   5.6045
     5.6882   5.6882   5.7846   5.7846   5.8889   5.8889   5.8964   5.8964

          k = 0.0000 0.2887 0.0000 ( 15085 PWs)   bands (ev):

   -31.8592 -31.8591 -31.7434 -31.7434 -31.3484 -31.3426 -31.3425 -31.3419
   -31.3393 -31.3393 -14.2892 -14.2227 -14.1982 -14.1583 -14.0689 -14.0256
   -13.3895 -13.1405 -13.0856 -13.0449 -12.9481 -12.9467 -12.9185 -12.8928
   -12.8804 -12.8702 -12.8283 -12.8085 -12.7623 -12.7212 -12.7131 -12.6743
   -12.6591 -12.6362 -12.5816 -12.5581 -12.5298 -12.5112 -12.5042 -12.4540
   -12.4473 -12.4292 -12.3881 -12.3284 -12.2919 -12.2704 -11.4929 -11.3682
   -11.3531 -11.2405 -11.2062 -11.1708 -11.1059 -11.0521 -11.0310 -10.9977
   -10.9850 -10.9466 -10.9141 -10.9065 -10.8921 -10.8030 -10.7850 -10.7422
   -10.5647 -10.4815  -1.1509  -0.9017  -0.8600  -0.7380  -0.6775  -0.6029
     0.8388   0.8722   1.0022   1.0190   1.1538   1.1796   1.2559   1.2653
     1.2790   1.3442   1.4430   1.5642   1.5794   1.6051   1.6445   1.7016
     1.7251   1.8012   1.9036   2.3093   2.9887   3.0147   3.2054   3.2647
     3.3208   3.4912   3.5196   3.5266   3.5606   3.6379   3.6826   3.7015
     3.7226   3.7490   3.7649   3.8004   3.8455   3.9055   4.0272   4.1308
     4.1404   4.1606   4.2075   4.3624   4.3843   4.4406   4.4877   4.5852
     4.5937   4.8020   5.0056   5.0195   5.0759   5.0941   5.1346   5.2349
     5.2712   5.3116   5.4053   5.4660   5.4899   5.5028   5.5986   5.6029
     5.6806   5.7041   5.7262   5.7568   5.8318   5.8840   5.9645   6.0342

          k = 0.0000 0.2887 0.3356 ( 15091 PWs)   bands (ev):

   -31.8585 -31.8584 -31.7442 -31.7442 -31.3475 -31.3429 -31.3421 -31.3420
   -31.3398 -31.3398 -14.2792 -14.2164 -14.2072 -14.1690 -14.1048 -14.0731
   -13.3336 -13.1486 -13.0963 -13.0655 -13.0034 -12.9672 -12.9420 -12.9128
   -12.8633 -12.8540 -12.8386 -12.8253 -12.7754 -12.7610 -12.6599 -12.6329
   -12.6203 -12.5780 -12.5701 -12.5549 -12.5226 -12.4697 -12.4576 -12.4444
   -12.4295 -12.3732 -12.3503 -12.3187 -12.2949 -12.2685 -11.4117 -11.3258
   -11.3068 -11.2317 -11.1985 -11.1610 -11.1370 -11.0995 -11.0527 -11.0396
   -11.0197 -10.9759 -10.9526 -10.9278 -10.9130 -10.8539 -10.8470 -10.7988
   -10.5496 -10.4922  -1.0659  -0.8349  -0.7996  -0.7569  -0.6767  -0.6208
     0.8892   0.9135   1.0476   1.1154   1.1316   1.1813   1.2553   1.3029
     1.3109   1.4308   1.5042   1.5254   1.5750   1.6194   1.6513   1.7101
     1.7143   1.7816   1.8780   2.1274   2.9809   3.0223   3.2382   3.2681
     3.2999   3.4213   3.4757   3.4950   3.5375   3.5525   3.5785   3.6455
     3.6734   3.6944   3.7418   3.8259   3.8760   3.9686   4.0133   4.1485
     4.2102   4.2639   4.2801   4.3356   4.3689   4.4151   4.4392   4.4928
     4.5647   4.6887   5.0073   5.0213   5.0418   5.1044   5.1693   5.2769
     5.3187   5.3336   5.3874   5.4435   5.4939   5.5111   5.5370   5.6208
     5.6665   5.6950   5.7247   5.7727   5.8354   5.8917   5.9141   5.9834

          k = 0.0000 0.2887-0.6712 ( 15104 PWs)   bands (ev):

   -31.8577 -31.8576 -31.7450 -31.7450 -31.3452 -31.3452 -31.3410 -31.3410
   -31.3409 -31.3409 -14.2469 -14.2469 -14.1818 -14.1818 -14.1381 -14.1380
   -13.1716 -13.1715 -13.0822 -13.0822 -13.0437 -13.0437 -12.9896 -12.9896
   -12.8785 -12.8785 -12.8566 -12.8566 -12.7886 -12.7886 -12.5934 -12.5934
   -12.5618 -12.5618 -12.5098 -12.5098 -12.4382 -12.4382 -12.4285 -12.4285
   -12.3592 -12.3592 -12.3263 -12.3263 -12.2843 -12.2842 -11.2773 -11.2773
   -11.2624 -11.2624 -11.2051 -11.2051 -11.1259 -11.1259 -11.0868 -11.0867
   -11.0473 -11.0473 -10.9442 -10.9442 -10.9218 -10.9218 -10.8992 -10.8992
   -10.5195 -10.5195  -0.8894  -0.8893  -0.7192  -0.7192  -0.6815  -0.6814
     0.9465   0.9465   1.0892   1.0893   1.2313   1.2314   1.3528   1.3528
     1.4251   1.4252   1.5028   1.5028   1.5820   1.5820   1.6830   1.6831
     1.7200   1.7200   1.8913   1.8913   3.0278   3.0278   3.2539   3.2539
     3.2943   3.2943   3.3676   3.3676   3.5540   3.5540   3.6036   3.6036
     3.7247   3.7247   3.7786   3.7786   3.8583   3.8583   4.0748   4.0748
     4.2747   4.2747   4.3082   4.3082   4.3464   4.3465   4.4701   4.4701
     4.5696   4.5696   5.0076   5.0076   5.0573   5.0573   5.2353   5.2354
     5.3742   5.3742   5.4097   5.4098   5.4864   5.4864   5.6042   5.6042
     5.6694   5.6694   5.7522   5.7522   5.8393   5.8393   5.9159   5.9159

          k = 0.0000-0.5774 0.0000 ( 15096 PWs)   bands (ev):

   -31.8592 -31.8591 -31.7434 -31.7434 -31.3485 -31.3426 -31.3425 -31.3419
   -31.3393 -31.3393 -14.2670 -14.2653 -14.1981 -14.1725 -14.0597 -13.9983
   -13.2750 -13.2612 -13.0756 -13.0131 -13.0070 -12.9683 -12.9179 -12.8900
   -12.8792 -12.8592 -12.8187 -12.7856 -12.7324 -12.7267 -12.7124 -12.6947
   -12.6539 -12.6495 -12.6090 -12.5500 -12.5302 -12.5174 -12.5062 -12.4681
   -12.4457 -12.4246 -12.3428 -12.3394 -12.2930 -12.2761 -11.4559 -11.4291
   -11.2835 -11.2768 -11.1922 -11.1817 -11.1163 -11.0954 -11.0248 -11.0046
   -10.9685 -10.9257 -10.9102 -10.9072 -10.8879 -10.8114 -10.7851 -10.7321
   -10.5467 -10.4969  -1.0560  -0.9906  -0.8622  -0.7613  -0.6791  -0.5665
     0.7493   0.7933   1.0120   1.0668   1.1278   1.2196   1.2233   1.2313
     1.2561   1.3789   1.4199   1.5325   1.6203   1.6393   1.6704   1.7357
     1.7444   1.8127   1.9587   2.3195   2.9875   3.0340   3.0829   3.2725
     3.3249   3.4607   3.5323   3.5689   3.5764   3.6384   3.6546   3.7087
     3.7498   3.7534   3.7562   3.8325   3.9151   4.0020   4.0210   4.0609
     4.1419   4.1972   4.2082   4.2299   4.4095   4.4295   4.4633   4.6007
     4.6509   4.7043   5.0203   5.0322   5.1140   5.1619   5.2096   5.2464
     5.3136   5.3228   5.3456   5.4168   5.4634   5.5754   5.5791   5.5913
     5.6360   5.6431   5.6861   5.7429   5.7603   5.9240   5.9836   5.9954

          k = 0.0000-0.5774 0.3356 ( 15106 PWs)   bands (ev):

   -31.8584 -31.8584 -31.7442 -31.7442 -31.3475 -31.3429 -31.3421 -31.3420
   -31.3398 -31.3398 -14.2666 -14.2609 -14.2060 -14.1734 -14.0845 -14.0541
   -13.2540 -13.2286 -13.0927 -13.0569 -13.0343 -12.9621 -12.9295 -12.9056
   -12.8792 -12.8693 -12.8362 -12.8047 -12.7712 -12.7599 -12.6735 -12.6286
   -12.6067 -12.6060 -12.5661 -12.5567 -12.5375 -12.4693 -12.4648 -12.4480
   -12.4279 -12.3762 -12.3233 -12.3175 -12.2798 -12.2602 -11.3875 -11.3846
   -11.2586 -11.2577 -11.2102 -11.1946 -11.1330 -11.1291 -11.0496 -11.0362
   -11.0072 -10.9524 -10.9473 -10.9299 -10.8952 -10.8558 -10.8199 -10.8164
   -10.5369 -10.5014  -0.9854  -0.9050  -0.8105  -0.7634  -0.6870  -0.5954
     0.8024   0.8268   1.0685   1.1286   1.1509   1.1854   1.2294   1.2891
     1.2977   1.4519   1.4554   1.5575   1.5874   1.6576   1.6684   1.7167
     1.7700   1.7864   1.9074   2.1338   3.0249   3.0581   3.1717   3.2837
     3.2856   3.4069   3.4947   3.5288   3.5394   3.5470   3.5887   3.5970
     3.6966   3.7118   3.7782   3.8865   3.9044   3.9432   3.9978   4.0359
     4.1778   4.2480   4.2694   4.2763   4.3631   4.3774   4.4281   4.5999
     4.6327   4.6797   5.0022   5.0120   5.1066   5.1567   5.2556   5.2764
     5.3420   5.3440   5.3754   5.4089   5.4676   5.4895   5.5461   5.5582
     5.6596   5.6644   5.6834   5.7559   5.7770   5.8726   5.9457   5.9744

          k = 0.0000-0.5774-0.6712 ( 15148 PWs)   bands (ev):

   -31.8577 -31.8576 -31.7450 -31.7450 -31.3452 -31.3452 -31.3410 -31.3410
   -31.3409 -31.3409 -14.2631 -14.2631 -14.1860 -14.1860 -14.1144 -14.1144
   -13.1493 -13.1492 -13.1007 -13.1007 -13.0577 -13.0576 -12.9734 -12.9734
   -12.9020 -12.9020 -12.8634 -12.8634 -12.7710 -12.7710 -12.5941 -12.5941
   -12.5473 -12.5472 -12.5161 -12.5161 -12.4465 -12.4465 -12.4311 -12.4311
   -12.3779 -12.3779 -12.3239 -12.3239 -12.2500 -12.2500 -11.3035 -11.3035
   -11.2707 -11.2707 -11.2406 -11.2405 -11.1068 -11.1068 -11.0695 -11.0694
   -11.0418 -11.0417 -10.9561 -10.9561 -10.9180 -10.9180 -10.8756 -10.8756
   -10.5174 -10.5174  -0.8526  -0.8525  -0.7429  -0.7428  -0.6945  -0.6945
     0.8594   0.8594   1.0956   1.0957   1.2468   1.2469   1.3512   1.3513
     1.3898   1.3899   1.5166   1.5166   1.6020   1.6021   1.7182   1.7183
     1.7713   1.7714   1.8665   1.8665   3.0794   3.0794   3.2611   3.2611
     3.3860   3.3860   3.4670   3.4671   3.5044   3.5044   3.5505   3.5506
     3.6154   3.6154   3.7316   3.7317   3.8167   3.8167   4.1002   4.1003
     4.2496   4.2496   4.3121   4.3121   4.3466   4.3466   4.4872   4.4872
     4.6328   4.6328   4.9960   4.9960   5.1127   5.1127   5.3020   5.3021
     5.3518   5.3518   5.4072   5.4072   5.4505   5.4505   5.5546   5.5546
     5.6627   5.6627   5.7452   5.7452   5.7930   5.7930   5.9237   5.9237

          k = 0.2500 0.4330 0.0000 ( 15118 PWs)   bands (ev):

   -31.8592 -31.8591 -31.7434 -31.7434 -31.3485 -31.3426 -31.3425 -31.3419
   -31.3393 -31.3393 -14.2805 -14.2471 -14.1897 -14.1632 -14.1182 -13.9564
   -13.3118 -13.2203 -13.1315 -13.0012 -12.9685 -12.9513 -12.9259 -12.8944
   -12.8881 -12.8668 -12.8311 -12.7537 -12.7317 -12.7203 -12.7121 -12.6802
   -12.6659 -12.6171 -12.6065 -12.5947 -12.5202 -12.5121 -12.5065 -12.4940
   -12.4746 -12.4246 -12.3547 -12.3198 -12.2943 -12.2559 -11.4528 -11.3885
   -11.3074 -11.2952 -11.2264 -11.1868 -11.1192 -11.0510 -11.0392 -10.9841
   -10.9582 -10.9339 -10.9170 -10.9100 -10.8889 -10.8052 -10.7905 -10.7313
   -10.5506 -10.4949  -1.0632  -0.9444  -0.9220  -0.7323  -0.6894  -0.5641
     0.7572   0.7747   0.9974   1.0874   1.1327   1.2001   1.2320   1.2386
     1.3057   1.3829   1.4241   1.4961   1.5529   1.6607   1.6891   1.7442
     1.7570   1.7901   1.9593   2.3200   2.9794   3.0476   3.0928   3.2142
     3.4120   3.4841   3.5144   3.5445   3.6116   3.6234   3.6788   3.6908
     3.7102   3.7485   3.8000   3.8436   3.8710   3.9938   4.0052   4.0912
     4.1113   4.1456   4.1796   4.3011   4.4321   4.4492   4.4798   4.5674
     4.6256   4.7174   5.0234   5.0447   5.1065   5.1425   5.2044   5.2314
     5.3083   5.3220   5.4235   5.4511   5.4633   5.4840   5.5699   5.6126
     5.6329   5.6386   5.7131   5.7486   5.7849   5.8778   5.9669   6.0207

          k = 0.2500 0.4330 0.3356 ( 15096 PWs)   bands (ev):

   -31.8584 -31.8584 -31.7442 -31.7442 -31.3475 -31.3429 -31.3421 -31.3420
   -31.3398 -31.3398 -14.2766 -14.2495 -14.1905 -14.1675 -14.1409 -14.0183
   -13.2752 -13.2068 -13.1249 -13.0406 -12.9966 -12.9665 -12.9356 -12.9216
   -12.8860 -12.8680 -12.8225 -12.8093 -12.7804 -12.7530 -12.6606 -12.6313
   -12.6088 -12.5909 -12.5789 -12.5634 -12.5130 -12.5015 -12.4762 -12.4456
   -12.4389 -12.3596 -12.3365 -12.3070 -12.2780 -12.2503 -11.3941 -11.3370
   -11.2944 -11.2651 -11.2293 -11.2046 -11.1325 -11.1035 -11.0728 -11.0134
   -10.9969 -10.9711 -10.9357 -10.9167 -10.9040 -10.8481 -10.8362 -10.8085
   -10.5395 -10.5008  -0.9883  -0.8723  -0.8581  -0.7406  -0.6966  -0.5903
     0.8023   0.8179   1.0778   1.1196   1.1601   1.1962   1.2269   1.2418
     1.3951   1.4276   1.4465   1.5491   1.5876   1.6188   1.6732   1.7246
     1.7743   1.7868   1.9038   2.1349   3.0091   3.0866   3.1661   3.2261
     3.3755   3.4296   3.4719   3.5134   3.5343   3.5573   3.5996   3.6215
     3.6769   3.7162   3.7471   3.7976   3.9170   3.9729   4.0257   4.0904
     4.1156   4.2255   4.2689   4.3028   4.3463   4.3978   4.4814   4.5730
     4.5935   4.6898   5.0150   5.0216   5.0987   5.1482   5.2321   5.2780
     5.3128   5.3591   5.3901   5.4430   5.4683   5.5122   5.5358   5.5719
     5.6073   5.6803   5.7057   5.7380   5.7878   5.8601   5.9399   5.9795

          k = 0.2500 0.4330-0.6712 ( 15090 PWs)   bands (ev):

   -31.8577 -31.8576 -31.7450 -31.7450 -31.3452 -31.3452 -31.3410 -31.3410
   -31.3409 -31.3409 -14.2627 -14.2626 -14.1862 -14.1862 -14.1148 -14.1148
   -13.1509 -13.1509 -13.0967 -13.0967 -13.0587 -13.0587 -12.9632 -12.9632
   -12.9028 -12.9028 -12.8786 -12.8786 -12.7672 -12.7672 -12.5863 -12.5863
   -12.5562 -12.5562 -12.5147 -12.5147 -12.4438 -12.4438 -12.4324 -12.4324
   -12.4019 -12.4019 -12.2895 -12.2895 -12.2595 -12.2594 -11.2913 -11.2912
   -11.2752 -11.2751 -11.2551 -11.2550 -11.1079 -11.1079 -11.0673 -11.0673
   -11.0450 -11.0450 -10.9512 -10.9512 -10.9086 -10.9086 -10.8812 -10.8811
   -10.5186 -10.5186  -0.8535  -0.8534  -0.7406  -0.7406  -0.6956  -0.6956
     0.8555   0.8556   1.1164   1.1164   1.2174   1.2174   1.3231   1.3232
     1.4588   1.4588   1.5110   1.5110   1.5970   1.5970   1.6876   1.6877
     1.7822   1.7822   1.8671   1.8671   3.1057   3.1057   3.2589   3.2589
     3.3483   3.3483   3.4390   3.4390   3.5401   3.5401   3.5637   3.5637
     3.6172   3.6172   3.7089   3.7089   3.8310   3.8311   4.1155   4.1155
     4.2649   4.2649   4.3033   4.3034   4.3164   4.3165   4.5168   4.5168
     4.6114   4.6114   5.0082   5.0082   5.1073   5.1073   5.2827   5.2828
     5.3545   5.3546   5.3892   5.3892   5.4972   5.4973   5.5550   5.5550
     5.6535   5.6535   5.7482   5.7483   5.7871   5.7871   5.9225   5.9225

          k =-0.2500 0.1443 0.3356 ( 15091 PWs)   bands (ev):

   -31.8585 -31.8584 -31.7442 -31.7442 -31.3475 -31.3429 -31.3421 -31.3420
   -31.3398 -31.3398 -14.2792 -14.2164 -14.2072 -14.1690 -14.1048 -14.0731
   -13.3336 -13.1486 -13.0963 -13.0655 -13.0034 -12.9672 -12.9420 -12.9128
   -12.8633 -12.8540 -12.8386 -12.8253 -12.7754 -12.7610 -12.6598 -12.6329
   -12.6203 -12.5780 -12.5701 -12.5549 -12.5226 -12.4697 -12.4576 -12.4444
   -12.4295 -12.3732 -12.3503 -12.3187 -12.2949 -12.2685 -11.4117 -11.3258
   -11.3068 -11.2317 -11.1985 -11.1610 -11.1370 -11.0995 -11.0527 -11.0396
   -11.0197 -10.9759 -10.9526 -10.9277 -10.9130 -10.8539 -10.8470 -10.7988
   -10.5496 -10.4922  -1.0659  -0.8349  -0.7996  -0.7569  -0.6767  -0.6208
     0.8892   0.9136   1.0476   1.1154   1.1316   1.1813   1.2553   1.3029
     1.3109   1.4308   1.5041   1.5254   1.5750   1.6194   1.6513   1.7101
     1.7144   1.7815   1.8780   2.1274   2.9809   3.0223   3.2382   3.2681
     3.2998   3.4213   3.4757   3.4950   3.5375   3.5525   3.5785   3.6455
     3.6733   3.6944   3.7418   3.8259   3.8760   3.9686   4.0133   4.1484
     4.2102   4.2639   4.2801   4.3356   4.3689   4.4151   4.4392   4.4928
     4.5647   4.6888   5.0073   5.0213   5.0418   5.1044   5.1693   5.2769
     5.3187   5.3336   5.3874   5.4435   5.4939   5.5111   5.5370   5.6208
     5.6666   5.6950   5.7247   5.7727   5.8354   5.8917   5.9141   5.9834

          k = 0.2500-0.4330-0.3356 ( 15096 PWs)   bands (ev):

   -31.8584 -31.8584 -31.7442 -31.7442 -31.3475 -31.3429 -31.3421 -31.3420
   -31.3398 -31.3398 -14.2766 -14.2495 -14.1904 -14.1675 -14.1409 -14.0183
   -13.2752 -13.2069 -13.1249 -13.0406 -12.9966 -12.9665 -12.9356 -12.9216
   -12.8860 -12.8680 -12.8225 -12.8093 -12.7804 -12.7530 -12.6606 -12.6313
   -12.6088 -12.5909 -12.5789 -12.5634 -12.5130 -12.5015 -12.4762 -12.4456
   -12.4389 -12.3596 -12.3365 -12.3070 -12.2780 -12.2503 -11.3941 -11.3370
   -11.2944 -11.2651 -11.2293 -11.2046 -11.1325 -11.1035 -11.0729 -11.0134
   -10.9969 -10.9712 -10.9356 -10.9167 -10.9040 -10.8481 -10.8362 -10.8085
   -10.5395 -10.5009  -0.9883  -0.8723  -0.8581  -0.7406  -0.6966  -0.5903
     0.8023   0.8179   1.0778   1.1197   1.1601   1.1962   1.2269   1.2418
     1.3951   1.4276   1.4466   1.5491   1.5877   1.6188   1.6731   1.7246
     1.7743   1.7868   1.9039   2.1349   3.0091   3.0866   3.1661   3.2261
     3.3755   3.4296   3.4719   3.5134   3.5343   3.5573   3.5996   3.6215
     3.6769   3.7162   3.7471   3.7976   3.9170   3.9729   4.0258   4.0904
     4.1156   4.2255   4.2689   4.3028   4.3463   4.3978   4.4813   4.5731
     4.5935   4.6898   5.0150   5.0216   5.0987   5.1482   5.2321   5.2780
     5.3128   5.3591   5.3901   5.4430   5.4683   5.5122   5.5358   5.5719
     5.6073   5.6803   5.7057   5.7380   5.7878   5.8601   5.9399   5.9795

!    total energy              =   -1668.20791579 Ry
     Harris-Foulkes estimate   =   -1668.20791579 Ry
     estimated scf accuracy    <          1.0E-09 Ry

     The total energy is the sum of the following terms:

     one-electron contribution =    -502.45354136 Ry
     hartree contribution      =     401.42853799 Ry
     xc contribution           =    -328.25357695 Ry
     ewald contribution        =   -1238.92933547 Ry

     convergence has been achieved in  12 iterations

     Forces acting on atoms (Ry/au):


     negative rho (up, down):  0.173E-02 0.000E+00
     atom   1 type  1   force =     0.00000000    0.00000000    0.00135979
     atom   2 type  1   force =     0.00000000    0.00000000    0.00135757
     atom   3 type  1   force =     0.00000000    0.00000000   -0.00265168
     atom   4 type  1   force =     0.00000000    0.00000000   -0.00265278
     atom   5 type  1   force =     0.00174748    0.00335983   -0.00083550
     atom   6 type  1   force =    -0.00174682   -0.00336068   -0.00083132
     atom   7 type  1   force =    -0.00378343   -0.00016655   -0.00083550
     atom   8 type  1   force =     0.00203596   -0.00319327   -0.00083550
     atom   9 type  1   force =    -0.00203703    0.00319313   -0.00083132
     atom  10 type  1   force =     0.00378385    0.00016755   -0.00083132
     atom  11 type  2   force =     0.00063613   -0.00100422    0.00043020
     atom  12 type  2   force =    -0.00073101    0.00096983    0.00033252
     atom  13 type  2   force =     0.00055162    0.00105301    0.00043020
     atom  14 type  2   force =    -0.00118775   -0.00004879    0.00043020
     atom  15 type  2   force =     0.00120540    0.00014816    0.00033252
     atom  16 type  2   force =    -0.00047439   -0.00111799    0.00033252
     atom  17 type  3   force =     0.00021961    0.00734193    0.00044248
     atom  18 type  3   force =    -0.00022265   -0.00733996    0.00045296
     atom  19 type  3   force =    -0.00646810   -0.00348078    0.00044248
     atom  20 type  3   force =     0.00624850   -0.00386115    0.00044248
     atom  21 type  3   force =    -0.00624527    0.00386280    0.00045296
     atom  22 type  3   force =     0.00646792    0.00347716    0.00045296
     atom  23 type  3   force =     0.01140739    0.01364841   -0.00155262
     atom  24 type  3   force =    -0.01140333   -0.01364616   -0.00150925
     atom  25 type  3   force =    -0.01752356    0.00305488   -0.00155262
     atom  26 type  3   force =     0.00611618   -0.01670329   -0.00155262
     atom  27 type  3   force =    -0.00611626    0.01669865   -0.00150925
     atom  28 type  3   force =     0.01751959   -0.00305249   -0.00150925
     atom  29 type  3   force =    -0.00231707   -0.00784358   -0.01388403
     atom  30 type  3   force =     0.00231334    0.00782700   -0.01385566
     atom  31 type  3   force =     0.00795128    0.00191515   -0.01388403
     atom  32 type  3   force =    -0.00563421    0.00592843   -0.01388403
     atom  33 type  3   force =     0.00562171   -0.00591691   -0.01385566
     atom  34 type  3   force =    -0.00793505   -0.00191009   -0.01385566
     atom  35 type  3   force =     0.00246105    0.00789086    0.01547337
     atom  36 type  3   force =    -0.00245729   -0.00785739    0.01543060
     atom  37 type  3   force =    -0.00806421   -0.00181410    0.01547337
     atom  38 type  3   force =     0.00560316   -0.00607676    0.01547337
     atom  39 type  3   force =    -0.00557606    0.00605677    0.01543060
     atom  40 type  3   force =     0.00803335    0.00180062    0.01543060
     atom  41 type  3   force =     0.00000000    0.00000000   -0.01569356
     atom  42 type  3   force =     0.00000000    0.00000000   -0.01568121
     atom  43 type  4   force =     0.00000000    0.00000000    0.01684387
     atom  44 type  4   force =     0.00000000    0.00000000    0.01683682

     Total force =     0.082519     Total SCF correction =     0.000103


     entering subroutine stress ...


     negative rho (up, down):  0.173E-02 0.000E+00
          total   stress  (Ry/bohr**3)                   (kbar)     P=   30.56
   0.00023105   0.00000000   0.00000000         33.99      0.00      0.00
   0.00000000   0.00023105   0.00000000          0.00     33.99      0.00
   0.00000000   0.00000000   0.00016106          0.00      0.00     23.69


     BFGS Geometry Optimization

     number of scf cycles    =   1
     number of bfgs steps    =   0

     enthalpy new            =   -1668.2079157929 Ry

     new trust radius        =       0.5000000000 bohr
     new conv_thr            =       0.0000000100 Ry

     new unit-cell volume =   4555.31467 a.u.^3 (   675.02798 Ang^3 )

CELL_PARAMETERS (alat= 17.62853047)
   1.098284983   0.000000000   0.000000000
  -0.549142492   0.951142696   0.000000000
   0.000000000   0.000000000   0.795993144

ATOMIC_POSITIONS (crystal)
Ca       0.333333333  -0.333333333  -0.002331404
Ca      -0.333333333   0.333333333   0.497668393
Ca      -0.333333333   0.333333333   0.000005207
Ca       0.333333333  -0.333333333  -0.499994894
Ca       0.244635818  -0.009764255   0.249195003
Ca      -0.244635807   0.009764187  -0.250804614
Ca       0.009764255   0.254400073   0.249195003
Ca      -0.254400073  -0.244635818   0.249195003
Ca       0.254399994   0.244635807  -0.250804614
Ca      -0.009764187  -0.254399994  -0.250804614
P        0.394302004   0.365723931   0.250595455
P       -0.394309837  -0.365726642  -0.249413497
P       -0.365723931   0.028578072   0.250595455
P       -0.028578072  -0.394302004   0.250595455
P        0.028583194   0.394309837  -0.249413497
P        0.365726642  -0.028583194  -0.249413497
O        0.318184890   0.480793855   0.253144359
O       -0.318185020  -0.480793700  -0.246854681
O       -0.480793855  -0.162608965   0.253144359
O        0.162608965  -0.318184890   0.253144359
O       -0.162608679   0.318185020  -0.246854681
O        0.480793700   0.162608679  -0.246854681
O       -0.412255756   0.466909768   0.242922706
O        0.412256122  -0.466909590  -0.257073320
O       -0.466909768   0.120834476   0.242922706
O       -0.120834476   0.412255756   0.242922706
O        0.120834288  -0.412256122  -0.257073320
O        0.466909590  -0.120834288  -0.257073320
O        0.332178563   0.249268467   0.072390274
O       -0.332179471  -0.249269775  -0.427607125
O       -0.249268467   0.082910094   0.072390274
O       -0.082910094  -0.332178563   0.072390274
O        0.082909695   0.332179471  -0.427607125
O        0.249269775  -0.082909695  -0.427607125
O       -0.347753915  -0.255982284  -0.066135536
O        0.347755491   0.255984922   0.433860544
O        0.255982284  -0.091771632  -0.066135536
O        0.091771632   0.347753915  -0.066135536
O       -0.091770569  -0.347755491   0.433860544
O       -0.255984922   0.091770569   0.433860544
O        0.000000000   0.000000000  -0.210806099
O        0.000000000   0.000000000   0.289195033
H        0.000000000   0.000000000  -0.068197145
H        0.000000000   0.000000000   0.431802209



     Writing output data file HAP_fullopt_40_r1.fullopt.in.save
     Check: negative starting charge=   -0.001889
     NEW-OLD atomic charge density approx. for the potential
     NEW k-points:
        k(    1) = (   0.0000000   0.0000000   0.0000000), wk =   0.0312500
        k(    2) = (   0.0000000   0.0000000   0.3140731), wk =   0.0625000
        k(    3) = (   0.0000000   0.0000000  -0.6281461), wk =   0.0312500
        k(    4) = (   0.0000000   0.2628417   0.0000000), wk =   0.1875000
        k(    5) = (   0.0000000   0.2628417   0.3140731), wk =   0.1875000
        k(    6) = (   0.0000000   0.2628417  -0.6281461), wk =   0.1875000
        k(    7) = (   0.0000000  -0.5256835   0.0000000), wk =   0.0937500
        k(    8) = (   0.0000000  -0.5256835   0.3140731), wk =   0.1875000
        k(    9) = (   0.0000000  -0.5256835  -0.6281461), wk =   0.0937500
        k(   10) = (   0.2276276   0.3942626   0.0000000), wk =   0.1875000
        k(   11) = (   0.2276276   0.3942626   0.3140731), wk =   0.1875000
        k(   12) = (   0.2276276   0.3942626  -0.6281461), wk =   0.1875000
        k(   13) = (  -0.2276276   0.1314209   0.3140731), wk =   0.1875000
        k(   14) = (   0.2276276  -0.3942626  -0.3140731), wk =   0.1875000
     Check: negative starting charge=   -0.002024

     negative rho (up, down):  0.229E-02 0.000E+00
     extrapolated charge  352.53602, renormalised to  288.00000

     total cpu time spent up to now is   1405.09 secs

     per-process dynamical memory:   124.4 Mb

     Self-consistent Calculation

     iteration #  1     ecut=    40.00 Ry     beta=0.70
     Davidson diagonalization with overlap
     c_bands:  1 eigenvalues not converged
     ethr =  1.00E-06,  avg # of iterations = 18.2

     negative rho (up, down):  0.325E-02 0.000E+00

     total cpu time spent up to now is   1753.88 secs

     total energy              =   -1568.04365257 Ry
     Harris-Foulkes estimate   =   -1568.50535130 Ry
     estimated scf accuracy    <      80.20062187 Ry

     iteration #  2     ecut=    40.00 Ry     beta=0.70
     Davidson diagonalization with overlap
     ethr =  1.00E-02,  avg # of iterations =  6.6

     negative rho (up, down):  0.275E-02 0.000E+00

     total cpu time spent up to now is   1909.31 secs

     total energy              =   -1656.37415428 Ry
     Harris-Foulkes estimate   =   -1777.17173109 Ry
     estimated scf accuracy    <     341.33232476 Ry

     iteration #  3     ecut=    40.00 Ry     beta=0.70
     Davidson diagonalization with overlap
     ethr =  1.00E-02,  avg # of iterations =  9.2

     negative rho (up, down):  0.258E-02 0.000E+00

     total cpu time spent up to now is   2084.04 secs

     total energy              =   -1675.57236168 Ry
     Harris-Foulkes estimate   =   -1691.24295118 Ry
     estimated scf accuracy    <      67.01587051 Ry

     iteration #  4     ecut=    40.00 Ry     beta=0.70
     Davidson diagonalization with overlap
     ethr =  1.00E-02,  avg # of iterations =  2.0

     negative rho (up, down):  0.234E-02 0.000E+00

     total cpu time spent up to now is   2149.60 secs

     total energy              =   -1670.33680983 Ry
     Harris-Foulkes estimate   =   -1677.31017487 Ry
     estimated scf accuracy    <      31.37211858 Ry

     iteration #  5     ecut=    40.00 Ry     beta=0.70
     Davidson diagonalization with overlap
     ethr =  1.00E-02,  avg # of iterations =  4.2

     negative rho (up, down):  0.223E-02 0.000E+00

     total cpu time spent up to now is   2221.97 secs

     total energy              =   -1669.35303602 Ry
     Harris-Foulkes estimate   =   -1671.82541760 Ry
     estimated scf accuracy    <      15.01486531 Ry

     iteration #  6     ecut=    40.00 Ry     beta=0.70
     Davidson diagonalization with overlap
     ethr =  5.21E-03,  avg # of iterations =  1.2

     negative rho (up, down):  0.216E-02 0.000E+00

     total cpu time spent up to now is   2282.53 secs

     total energy              =   -1668.35405751 Ry
     Harris-Foulkes estimate   =   -1669.62474421 Ry
     estimated scf accuracy    <       9.56349646 Ry

     iteration #  7     ecut=    40.00 Ry     beta=0.70
     Davidson diagonalization with overlap
     ethr =  3.32E-03,  avg # of iterations =  2.4

     negative rho (up, down):  0.215E-02 0.000E+00

     total cpu time spent up to now is   2348.19 secs

     total energy              =   -1667.78944344 Ry
     Harris-Foulkes estimate   =   -1668.57878918 Ry
     estimated scf accuracy    <       6.14487201 Ry

     iteration #  8     ecut=    40.00 Ry     beta=0.70
     Davidson diagonalization with overlap
     ethr =  2.13E-03,  avg # of iterations =  1.6

     negative rho (up, down):  0.213E-02 0.000E+00

     total cpu time spent up to now is   2411.79 secs

     total energy              =   -1667.19808075 Ry
     Harris-Foulkes estimate   =   -1667.90402354 Ry
     estimated scf accuracy    <       4.11721889 Ry

     iteration #  9     ecut=    40.00 Ry     beta=0.70
     Davidson diagonalization with overlap
     ethr =  1.43E-03,  avg # of iterations =  3.4

     negative rho (up, down):  0.212E-02 0.000E+00

     total cpu time spent up to now is   2480.82 secs

     total energy              =   -1667.39067025 Ry
     Harris-Foulkes estimate   =   -1667.46121888 Ry
     estimated scf accuracy    <       1.87123118 Ry

     iteration # 10     ecut=    40.00 Ry     beta=0.70
     Davidson diagonalization with overlap
     ethr =  6.50E-04,  avg # of iterations =  1.6

     negative rho (up, down):  0.200E-02 0.000E+00

     total cpu time spent up to now is   2543.62 secs

     total energy              =   -1666.67596733 Ry
     Harris-Foulkes estimate   =   -1667.49194162 Ry
     estimated scf accuracy    <       1.58078570 Ry

     iteration # 11     ecut=    40.00 Ry     beta=0.70
     Davidson diagonalization with overlap
     ethr =  5.49E-04,  avg # of iterations =  4.2

     negative rho (up, down):  0.199E-02 0.000E+00

     total cpu time spent up to now is   2652.30 secs

     total energy              =   -1667.44171089 Ry
     Harris-Foulkes estimate   =   -1667.47172583 Ry
     estimated scf accuracy    <       0.30756890 Ry

     iteration # 12     ecut=    40.00 Ry     beta=0.70
     Davidson diagonalization with overlap
     ethr =  1.07E-04,  avg # of iterations =  1.0

     negative rho (up, down):  0.195E-02 0.000E+00

     total cpu time spent up to now is   2713.20 secs

     total energy              =   -1667.36748024 Ry
     Harris-Foulkes estimate   =   -1667.45017070 Ry
     estimated scf accuracy    <       0.23473908 Ry

     iteration # 13     ecut=    40.00 Ry     beta=0.70
     Davidson diagonalization with overlap
     ethr =  8.15E-05,  avg # of iterations =  2.6

     negative rho (up, down):  0.195E-02 0.000E+00

     total cpu time spent up to now is   2791.06 secs

     total energy              =   -1667.38428702 Ry
     Harris-Foulkes estimate   =   -1667.40335732 Ry
     estimated scf accuracy    <       0.08082179 Ry

     iteration # 14     ecut=    40.00 Ry     beta=0.70
     Davidson diagonalization with overlap
     ethr =  2.81E-05,  avg # of iterations =  2.0

     negative rho (up, down):  0.197E-02 0.000E+00

     total cpu time spent up to now is   2856.96 secs

     total energy              =   -1667.38185385 Ry
     Harris-Foulkes estimate   =   -1667.38997042 Ry
     estimated scf accuracy    <       0.03971922 Ry

     iteration # 15     ecut=    40.00 Ry     beta=0.70
     Davidson diagonalization with overlap
     ethr =  1.38E-05,  avg # of iterations =  2.0

     negative rho (up, down):  0.199E-02 0.000E+00

     total cpu time spent up to now is   2922.90 secs

     total energy              =   -1667.38103889 Ry
     Harris-Foulkes estimate   =   -1667.38371911 Ry
     estimated scf accuracy    <       0.01680576 Ry

     iteration # 16     ecut=    40.00 Ry     beta=0.70
     Davidson diagonalization with overlap
     ethr =  5.84E-06,  avg # of iterations =  2.4

     negative rho (up, down):  0.200E-02 0.000E+00

     total cpu time spent up to now is   2997.67 secs

     total energy              =   -1667.38227057 Ry
     Harris-Foulkes estimate   =   -1667.38296901 Ry
     estimated scf accuracy    <       0.00931635 Ry

     iteration # 17     ecut=    40.00 Ry     beta=0.70
     Davidson diagonalization with overlap
     ethr =  3.23E-06,  avg # of iterations =  1.6

     negative rho (up, down):  0.201E-02 0.000E+00

     total cpu time spent up to now is   3060.19 secs

     total energy              =   -1667.38007865 Ry
     Harris-Foulkes estimate   =   -1667.38263682 Ry
     estimated scf accuracy    <       0.00827135 Ry

     iteration # 18     ecut=    40.00 Ry     beta=0.70
     Davidson diagonalization with overlap
     ethr =  2.87E-06,  avg # of iterations =  3.0

     negative rho (up, down):  0.200E-02 0.000E+00

     total cpu time spent up to now is   3130.82 secs

     total energy              =   -1667.37978198 Ry
     Harris-Foulkes estimate   =   -1667.38075670 Ry
     estimated scf accuracy    <       0.00175133 Ry

     iteration # 19     ecut=    40.00 Ry     beta=0.70
     Davidson diagonalization with overlap
     ethr =  6.08E-07,  avg # of iterations =  3.0

     negative rho (up, down):  0.201E-02 0.000E+00

     total cpu time spent up to now is   3236.76 secs

     total energy              =   -1667.38011686 Ry
     Harris-Foulkes estimate   =   -1667.38070021 Ry
     estimated scf accuracy    <       0.00180924 Ry

     iteration # 20     ecut=    40.00 Ry     beta=0.70
     Davidson diagonalization with overlap
     ethr =  6.08E-07,  avg # of iterations =  2.8

     negative rho (up, down):  0.201E-02 0.000E+00

     total cpu time spent up to now is   3312.06 secs

     total energy              =   -1667.38021325 Ry
     Harris-Foulkes estimate   =   -1667.38030627 Ry
     estimated scf accuracy    <       0.00019675 Ry

     iteration # 21     ecut=    40.00 Ry     beta=0.70
     Davidson diagonalization with overlap
     ethr =  6.83E-08,  avg # of iterations =  3.0

     negative rho (up, down):  0.201E-02 0.000E+00

     total cpu time spent up to now is   3408.36 secs

     total energy              =   -1667.38026978 Ry
     Harris-Foulkes estimate   =   -1667.38029025 Ry
     estimated scf accuracy    <       0.00004470 Ry

     iteration # 22     ecut=    40.00 Ry     beta=0.70
     Davidson diagonalization with overlap
     ethr =  1.55E-08,  avg # of iterations =  3.0

     negative rho (up, down):  0.201E-02 0.000E+00

     total cpu time spent up to now is   3495.91 secs

     total energy              =   -1667.38027882 Ry
     Harris-Foulkes estimate   =   -1667.38028017 Ry
     estimated scf accuracy    <       0.00000272 Ry

     iteration # 23     ecut=    40.00 Ry     beta=0.70
     Davidson diagonalization with overlap
     ethr =  9.44E-10,  avg # of iterations =  3.1

     negative rho (up, down):  0.201E-02 0.000E+00

     total cpu time spent up to now is   3602.82 secs

     total energy              =   -1667.38027964 Ry
     Harris-Foulkes estimate   =   -1667.38028023 Ry
     estimated scf accuracy    <       0.00000145 Ry

     iteration # 24     ecut=    40.00 Ry     beta=0.70
     Davidson diagonalization with overlap
     ethr =  5.05E-10,  avg # of iterations =  3.0

     negative rho (up, down):  0.201E-02 0.000E+00

     total cpu time spent up to now is   3691.90 secs

     total energy              =   -1667.38027990 Ry
     Harris-Foulkes estimate   =   -1667.38027993 Ry
     estimated scf accuracy    <       0.00000007 Ry

     iteration # 25     ecut=    40.00 Ry     beta=0.70
     Davidson diagonalization with overlap
     ethr =  2.51E-11,  avg # of iterations =  3.1

     negative rho (up, down):  0.201E-02 0.000E+00

     total cpu time spent up to now is   3792.68 secs

     total energy              =   -1667.38027992 Ry
     Harris-Foulkes estimate   =   -1667.38027993 Ry
     estimated scf accuracy    <       0.00000004 Ry

     iteration # 26     ecut=    40.00 Ry     beta=0.70
     Davidson diagonalization with overlap
     ethr =  1.25E-11,  avg # of iterations =  3.0

     negative rho (up, down):  0.201E-02 0.000E+00

     total cpu time spent up to now is   3881.59 secs

     End of self-consistent calculation

          k = 0.0000 0.0000 0.0000 ( 15069 PWs)   bands (ev):

   -35.4456 -35.4453 -35.3195 -35.3190 -35.0350 -35.0338 -35.0338 -35.0334
   -35.0330 -35.0330 -16.5136 -16.4925 -16.4435 -16.4435 -16.4281 -16.4281
   -16.3130 -16.3130 -16.3066 -16.3066 -16.2610 -16.2590 -16.0827 -16.0819
   -16.0819 -16.0776 -16.0713 -16.0710 -16.0710 -16.0602 -16.0457 -16.0457
   -16.0285 -16.0171 -16.0171 -16.0033 -16.0033 -15.9912 -15.9912 -15.9896
   -14.8495 -14.6808 -14.6808 -14.6345 -14.6289 -14.6289 -13.0796 -12.9736
   -12.9736 -12.9693 -12.9693 -12.9425 -12.8558 -12.8495 -12.8495 -12.8395
   -12.8395 -12.8174 -12.7838 -12.7732 -12.7732 -12.7708 -12.7708 -12.7671
   -12.6574 -12.5769  -3.7385  -3.5713  -3.5713  -3.4928  -3.4901  -3.4901
    -0.7919  -0.7401  -0.7269  -0.7269  -0.6415  -0.6415  -0.6374  -0.4701
    -0.4354  -0.4354  -0.4044  -0.4044  -0.3681  -0.3225  -0.2662  -0.2662
    -0.1649  -0.1649  -0.1556   0.3057   1.2755   1.3944   1.4924   1.5789
     1.5789   1.6836   1.6976   1.7704   1.7704   1.8038   1.8038   1.8536
     1.8536   1.9239   1.9239   1.9675   2.0004   2.0004   2.1933   2.1933
     2.2379   2.2379   2.2825   2.3282   2.3577   2.3577   2.3891   2.5004
     2.5004   2.6931   2.8636   2.8771   2.8771   2.9353   2.9353   3.0441
     3.1052   3.1052   3.1293   3.1387   3.1387   3.2911   3.2911   3.3397
     3.3397   3.3539   3.3946   3.3946   3.4095   3.5644   3.5919   3.5919

          k = 0.0000 0.0000 0.3141 ( 15098 PWs)   bands (ev):

   -35.4455 -35.4452 -35.3196 -35.3191 -35.0348 -35.0337 -35.0336 -35.0336
   -35.0331 -35.0331 -16.4871 -16.4691 -16.4407 -16.4341 -16.4292 -16.4226
   -16.3221 -16.3179 -16.3130 -16.3090 -16.2912 -16.2892 -16.0985 -16.0965
   -16.0880 -16.0868 -16.0844 -16.0795 -16.0685 -16.0433 -16.0427 -16.0361
   -16.0253 -16.0237 -16.0054 -16.0048 -16.0015 -15.9990 -15.9948 -15.9820
   -14.7970 -14.6569 -14.6529 -14.6457 -14.6208 -14.6169 -13.0574 -12.9748
   -12.9720 -12.9661 -12.9618 -12.9525 -12.8592 -12.8545 -12.8497 -12.8471
   -12.8337 -12.8329 -12.7944 -12.7900 -12.7883 -12.7872 -12.7858 -12.7837
   -12.6439 -12.5881  -3.6912  -3.5500  -3.5343  -3.5169  -3.4925  -3.4761
    -0.7391  -0.7051  -0.6976  -0.6684  -0.6517  -0.6495  -0.6264  -0.4611
    -0.4422  -0.3927  -0.3893  -0.3890  -0.3753  -0.2760  -0.2689  -0.2667
    -0.2137  -0.2093  -0.1325   0.1577   1.2931   1.3717   1.5010   1.5135
     1.5793   1.6410   1.6520   1.6606   1.7050   1.7907   1.8079   1.8816
     1.8978   1.9006   1.9613   1.9955   2.0384   2.0441   2.2332   2.2436
     2.2453   2.2504   2.2541   2.2853   2.3444   2.3715   2.3873   2.4781
     2.4782   2.4823   2.8828   2.8871   2.8931   2.8992   2.9490   3.0681
     3.0920   3.1023   3.1027   3.1538   3.2036   3.2351   3.2619   3.3102
     3.3487   3.3656   3.3906   3.4449   3.4585   3.5314   3.5509   3.5553

          k = 0.0000 0.0000-0.6281 ( 15086 PWs)   bands (ev):

   -35.4454 -35.4451 -35.3197 -35.3192 -35.0342 -35.0342 -35.0334 -35.0334
   -35.0333 -35.0333 -16.4416 -16.4413 -16.4322 -16.4322 -16.4217 -16.4217
   -16.3322 -16.3317 -16.3288 -16.3288 -16.3148 -16.3148 -16.1050 -16.1050
   -16.1022 -16.1022 -16.0784 -16.0784 -16.0684 -16.0683 -16.0279 -16.0279
   -16.0204 -16.0203 -16.0073 -16.0073 -16.0020 -16.0020 -15.9837 -15.9837
   -14.7008 -14.7008 -14.6216 -14.6216 -14.6159 -14.6159 -13.0029 -13.0027
   -12.9728 -12.9728 -12.9582 -12.9582 -12.8614 -12.8614 -12.8428 -12.8428
   -12.8393 -12.8390 -12.8103 -12.8103 -12.8073 -12.8073 -12.7977 -12.7977
   -12.6154 -12.6152  -3.5925  -3.5925  -3.5071  -3.5071  -3.4843  -3.4843
    -0.6815  -0.6815  -0.6616  -0.6616  -0.6460  -0.6459  -0.5346  -0.5345
    -0.3414  -0.3414  -0.3257  -0.3257  -0.3235  -0.3234  -0.2880  -0.2880
    -0.2872  -0.2872  -0.0775  -0.0773   1.3388   1.3390   1.4967   1.4967
     1.5140   1.5140   1.6124   1.6125   1.8178   1.8178   1.8343   1.8343
     1.9710   1.9710   1.9745   1.9747   2.0069   2.0069   2.1769   2.1769
     2.3036   2.3036   2.3100   2.3100   2.3129   2.3130   2.3890   2.3890
     2.4099   2.4099   2.8880   2.8880   2.9118   2.9118   2.9711   2.9712
     3.1203   3.1203   3.1376   3.1376   3.2108   3.2109   3.3025   3.3025
     3.3746   3.3746   3.4087   3.4087   3.4891   3.4891   3.5185   3.5187

          k = 0.0000 0.2628 0.0000 ( 15085 PWs)   bands (ev):

   -35.4456 -35.4453 -35.3195 -35.3190 -35.0350 -35.0338 -35.0338 -35.0334
   -35.0330 -35.0330 -16.5117 -16.4960 -16.4430 -16.4408 -16.4294 -16.4278
   -16.3125 -16.3119 -16.3073 -16.3068 -16.2609 -16.2594 -16.0929 -16.0846
   -16.0816 -16.0729 -16.0712 -16.0681 -16.0653 -16.0611 -16.0463 -16.0457
   -16.0292 -16.0189 -16.0166 -16.0039 -16.0010 -15.9936 -15.9911 -15.9895
   -14.8174 -14.6934 -14.6736 -14.6523 -14.6449 -14.6236 -13.0655 -12.9790
   -12.9713 -12.9667 -12.9603 -12.9393 -12.8744 -12.8633 -12.8494 -12.8395
   -12.8359 -12.8203 -12.7832 -12.7755 -12.7742 -12.7703 -12.7695 -12.7669
   -12.6492 -12.5750  -3.7162  -3.5946  -3.5737  -3.5241  -3.4872  -3.4556
    -0.8650  -0.8139  -0.7267  -0.7092  -0.6368  -0.6282  -0.5937  -0.5070
    -0.4654  -0.4321  -0.4238  -0.3454  -0.3181  -0.2844  -0.2700  -0.2464
    -0.2349  -0.1644  -0.0855   0.3083   1.3217   1.3798   1.4510   1.5664
     1.5988   1.6678   1.6954   1.7768   1.7959   1.8189   1.8429   1.8663
     1.8946   1.9264   1.9338   1.9615   1.9765   2.0011   2.1409   2.1748
     2.1897   2.1919   2.2688   2.3264   2.3851   2.4006   2.4462   2.4744
     2.5016   2.6637   2.8446   2.8658   2.9178   2.9376   2.9711   3.0334
     3.0661   3.0935   3.1417   3.2012   3.2100   3.2286   3.2664   3.2896
     3.3215   3.3416   3.3687   3.3748   3.4762   3.5069   3.5744   3.6150

          k = 0.0000 0.2628 0.3141 ( 15091 PWs)   bands (ev):

   -35.4455 -35.4452 -35.3196 -35.3191 -35.0348 -35.0337 -35.0336 -35.0336
   -35.0331 -35.0331 -16.4856 -16.4722 -16.4388 -16.4333 -16.4284 -16.4238
   -16.3203 -16.3169 -16.3136 -16.3106 -16.2910 -16.2895 -16.1048 -16.0977
   -16.0928 -16.0848 -16.0829 -16.0727 -16.0689 -16.0431 -16.0423 -16.0361
   -16.0255 -16.0238 -16.0068 -16.0052 -16.0010 -15.9982 -15.9940 -15.9828
   -14.7705 -14.6665 -14.6528 -14.6469 -14.6336 -14.6204 -13.0483 -12.9795
   -12.9708 -12.9669 -12.9602 -12.9412 -12.8799 -12.8639 -12.8507 -12.8473
   -12.8376 -12.8249 -12.7959 -12.7912 -12.7882 -12.7858 -12.7838 -12.7823
   -12.6375 -12.5853  -3.6723  -3.5653  -3.5441  -3.5284  -3.4853  -3.4638
    -0.8307  -0.7950  -0.6905  -0.6540  -0.6247  -0.6085  -0.5943  -0.4914
    -0.4683  -0.3962  -0.3762  -0.3517  -0.3260  -0.3027  -0.2766  -0.2358
    -0.2258  -0.1915  -0.1037   0.1587   1.3281   1.3641   1.5245   1.5291
     1.5558   1.6474   1.6747   1.6972   1.7056   1.7818   1.8182   1.8712
     1.8771   1.9116   1.9460   1.9890   2.0154   2.0582   2.1297   2.1895
     2.2171   2.2698   2.2935   2.3074   2.3569   2.3685   2.3922   2.4400
     2.4777   2.5658   2.8507   2.8774   2.8948   2.9476   2.9678   3.0635
     3.0783   3.0987   3.1360   3.1840   3.2087   3.2261   3.2539   3.2928
     3.3270   3.3420   3.3625   3.4033   3.4781   3.5130   3.5325   3.5790

          k = 0.0000 0.2628-0.6281 ( 15104 PWs)   bands (ev):

   -35.4454 -35.4451 -35.3197 -35.3192 -35.0342 -35.0342 -35.0334 -35.0334
   -35.0333 -35.0333 -16.4428 -16.4425 -16.4301 -16.4301 -16.4222 -16.4222
   -16.3353 -16.3349 -16.3252 -16.3249 -16.3152 -16.3151 -16.1084 -16.1084
   -16.1033 -16.1033 -16.0745 -16.0745 -16.0694 -16.0694 -16.0279 -16.0279
   -16.0198 -16.0198 -16.0066 -16.0066 -16.0024 -16.0024 -15.9839 -15.9839
   -14.6875 -14.6875 -14.6286 -14.6286 -14.6218 -14.6217 -13.0084 -13.0081
   -12.9708 -12.9706 -12.9502 -12.9500 -12.8731 -12.8727 -12.8538 -12.8533
   -12.8279 -12.8276 -12.8135 -12.8135 -12.8043 -12.8041 -12.7957 -12.7956
   -12.6111 -12.6109  -3.5861  -3.5861  -3.5075  -3.5075  -3.4898  -3.4898
    -0.7859  -0.7859  -0.6662  -0.6661  -0.5915  -0.5915  -0.4650  -0.4650
    -0.4126  -0.4125  -0.3641  -0.3641  -0.3030  -0.3029  -0.2596  -0.2596
    -0.2355  -0.2354  -0.0799  -0.0796   1.3539   1.3540   1.5195   1.5195
     1.5448   1.5449   1.6487   1.6488   1.7951   1.7952   1.8253   1.8253
     1.8936   1.8937   1.9603   1.9604   1.9931   1.9932   2.1591   2.1592
     2.2640   2.2641   2.3182   2.3183   2.3430   2.3430   2.4002   2.4003
     2.4681   2.4682   2.8676   2.8676   2.9039   2.9039   3.0161   3.0161
     3.1229   3.1230   3.1456   3.1457   3.1951   3.1952   3.2930   3.2931
     3.3429   3.3430   3.4113   3.4114   3.4631   3.4631   3.5313   3.5314

          k = 0.0000-0.5257 0.0000 ( 15096 PWs)   bands (ev):

   -35.4456 -35.4453 -35.3195 -35.3190 -35.0350 -35.0338 -35.0338 -35.0334
   -35.0330 -35.0330 -16.5080 -16.5011 -16.4424 -16.4369 -16.4319 -16.4275
   -16.3119 -16.3098 -16.3090 -16.3071 -16.2606 -16.2598 -16.0993 -16.0814
   -16.0801 -16.0755 -16.0733 -16.0654 -16.0632 -16.0606 -16.0472 -16.0458
   -16.0298 -16.0202 -16.0159 -16.0046 -15.9988 -15.9952 -15.9909 -15.9895
   -14.7507 -14.7405 -14.6708 -14.6665 -14.6530 -14.6253 -13.0462 -12.9876
   -12.9663 -12.9619 -12.9533 -12.9366 -12.8989 -12.8750 -12.8430 -12.8381
   -12.8345 -12.8283 -12.7822 -12.7779 -12.7749 -12.7701 -12.7678 -12.7675
   -12.6418 -12.5731  -3.6724  -3.6421  -3.5754  -3.5334  -3.4846  -3.4411
    -0.9131  -0.8751  -0.7229  -0.6804  -0.6360  -0.6100  -0.5936  -0.5308
    -0.4855  -0.4467  -0.4035  -0.3126  -0.2982  -0.2914  -0.2558  -0.2317
    -0.2303  -0.1637  -0.0574   0.3107   1.3711   1.3763   1.4076   1.5470
     1.5954   1.6621   1.7217   1.7822   1.8033   1.8335   1.8779   1.8930
     1.9157   1.9267   1.9283   1.9671   2.0013   2.0693   2.1258   2.1523
     2.1532   2.1732   2.1938   2.2720   2.3691   2.3953   2.4120   2.5115
     2.5304   2.6072   2.8509   2.8963   2.9318   2.9942   3.0394   3.0520
     3.0695   3.0844   3.1159   3.1401   3.1835   3.2594   3.2600   3.2709
     3.3095   3.3179   3.3587   3.3888   3.4082   3.5464   3.5788   3.5886

          k = 0.0000-0.5257 0.3141 ( 15106 PWs)   bands (ev):

   -35.4455 -35.4452 -35.3196 -35.3191 -35.0348 -35.0337 -35.0336 -35.0336
   -35.0331 -35.0331 -16.4827 -16.4768 -16.4367 -16.4320 -16.4280 -16.4253
   -16.3176 -16.3159 -16.3142 -16.3131 -16.2906 -16.2899 -16.1101 -16.0975
   -16.0940 -16.0847 -16.0802 -16.0744 -16.0677 -16.0429 -16.0412 -16.0363
   -16.0251 -16.0239 -16.0067 -16.0059 -16.0000 -15.9989 -15.9930 -15.9836
   -14.7142 -14.7084 -14.6535 -14.6518 -14.6402 -14.6232 -13.0348 -12.9882
   -12.9688 -12.9671 -12.9546 -12.9328 -12.9014 -12.8744 -12.8481 -12.8468
   -12.8348 -12.8281 -12.7957 -12.7931 -12.7865 -12.7860 -12.7822 -12.7816
   -12.6316 -12.5827  -3.6380  -3.6023  -3.5480  -3.5318  -3.4845  -3.4528
    -0.8832  -0.8555  -0.6729  -0.6505  -0.6098  -0.5935  -0.5816  -0.5028
    -0.4982  -0.3938  -0.3845  -0.3292  -0.3202  -0.2729  -0.2622  -0.2403
    -0.2100  -0.1826  -0.0910   0.1591   1.3739   1.3883   1.4699   1.5375
     1.5478   1.6612   1.7167   1.7242   1.7570   1.7909   1.8278   1.8511
     1.8682   1.8966   1.9484   1.9783   1.9989   2.0458   2.1112   2.1113
     2.1900   2.2687   2.2768   2.3140   2.3230   2.3319   2.4131   2.4799
     2.5219   2.5648   2.8402   2.8821   2.9218   2.9709   3.0563   3.0568
     3.0962   3.1059   3.1183   3.1647   3.1841   3.2190   3.2370   3.2410
     3.3155   3.3342   3.3770   3.4054   3.4190   3.5074   3.5540   3.5736

          k = 0.0000-0.5257-0.6281 ( 15148 PWs)   bands (ev):

   -35.4454 -35.4451 -35.3197 -35.3192 -35.0342 -35.0342 -35.0334 -35.0334
   -35.0333 -35.0333 -16.4438 -16.4435 -16.4277 -16.4275 -16.4233 -16.4232
   -16.3373 -16.3370 -16.3221 -16.3217 -16.3162 -16.3160 -16.1119 -16.1118
   -16.1026 -16.1026 -16.0769 -16.0769 -16.0662 -16.0662 -16.0276 -16.0276
   -16.0190 -16.0190 -16.0063 -16.0063 -16.0028 -16.0028 -15.9841 -15.9841
   -14.6643 -14.6643 -14.6475 -14.6475 -14.6257 -14.6257 -13.0097 -13.0094
   -12.9744 -12.9741 -12.9414 -12.9412 -12.8823 -12.8819 -12.8580 -12.8576
   -12.8250 -12.8246 -12.8143 -12.8143 -12.8031 -12.8027 -12.7938 -12.7937
   -12.6070 -12.6068  -3.5791  -3.5790  -3.5076  -3.5076  -3.4964  -3.4963
    -0.8443  -0.8443  -0.6598  -0.6598  -0.5646  -0.5645  -0.4599  -0.4598
    -0.4413  -0.4413  -0.3453  -0.3452  -0.3146  -0.3146  -0.2399  -0.2399
    -0.1985  -0.1984  -0.0936  -0.0934   1.3895   1.3897   1.5203   1.5203
     1.6490   1.6490   1.6790   1.6791   1.7264   1.7266   1.7683   1.7683
     1.8346   1.8346   1.9507   1.9507   1.9926   1.9927   2.1620   2.1621
     2.2297   2.2299   2.3230   2.3232   2.3564   2.3565   2.4054   2.4054
     2.5122   2.5123   2.8538   2.8539   2.9237   2.9238   3.0793   3.0794
     3.1047   3.1048   3.1469   3.1470   3.1697   3.1698   3.2499   3.2501
     3.3418   3.3420   3.4134   3.4135   3.4390   3.4390   3.5386   3.5387

          k = 0.2276 0.3943 0.0000 ( 15118 PWs)   bands (ev):

   -35.4456 -35.4453 -35.3195 -35.3190 -35.0350 -35.0338 -35.0338 -35.0334
   -35.0330 -35.0330 -16.5081 -16.5010 -16.4423 -16.4371 -16.4321 -16.4273
   -16.3117 -16.3105 -16.3086 -16.3070 -16.2606 -16.2598 -16.0950 -16.0909
   -16.0766 -16.0757 -16.0692 -16.0664 -16.0640 -16.0615 -16.0468 -16.0461
   -16.0297 -16.0192 -16.0169 -16.0033 -16.0006 -15.9937 -15.9916 -15.9895
   -14.7659 -14.7110 -14.6949 -14.6563 -14.6501 -14.6288 -13.0407 -12.9961
   -12.9660 -12.9642 -12.9551 -12.9307 -12.9030 -12.8633 -12.8499 -12.8402
   -12.8330 -12.8276 -12.7820 -12.7784 -12.7746 -12.7692 -12.7687 -12.7673
   -12.6420 -12.5731  -3.6771  -3.6137  -3.6113  -3.5146  -3.4914  -3.4408
    -0.9089  -0.8846  -0.7277  -0.6705  -0.6393  -0.6072  -0.5885  -0.5197
    -0.4837  -0.4405  -0.3992  -0.3514  -0.3311  -0.2768  -0.2429  -0.2246
    -0.2131  -0.1736  -0.0571   0.3108   1.3729   1.3793   1.4125   1.5044
     1.6523   1.6842   1.6979   1.7876   1.8077   1.8447   1.8565   1.8788
     1.9224   1.9261   1.9547   1.9699   1.9776   2.0300   2.0983   2.1180
     2.1813   2.1948   2.2340   2.2541   2.3809   2.3986   2.4249   2.4973
     2.5197   2.6115   2.8555   2.8851   2.9501   2.9883   3.0142   3.0358
     3.0755   3.0928   3.1571   3.1762   3.1808   3.2077   3.2592   3.2823
     3.2899   3.3040   3.3719   3.3916   3.4389   3.5180   3.5683   3.6058

          k = 0.2276 0.3943 0.3141 ( 15096 PWs)   bands (ev):

   -35.4455 -35.4452 -35.3196 -35.3191 -35.0348 -35.0337 -35.0336 -35.0336
   -35.0331 -35.0331 -16.4827 -16.4767 -16.4366 -16.4319 -16.4286 -16.4249
   -16.3178 -16.3157 -16.3147 -16.3126 -16.2906 -16.2900 -16.1075 -16.1035
   -16.0879 -16.0854 -16.0823 -16.0739 -16.0685 -16.0426 -16.0411 -16.0363
   -16.0253 -16.0237 -16.0070 -16.0048 -16.0006 -15.9989 -15.9930 -15.9835
   -14.7280 -14.6823 -14.6707 -14.6483 -14.6371 -14.6248 -13.0301 -12.9935
   -12.9720 -12.9676 -12.9554 -12.9284 -12.9035 -12.8649 -12.8580 -12.8399
   -12.8381 -12.8287 -12.7953 -12.7921 -12.7889 -12.7847 -12.7828 -12.7810
   -12.6317 -12.5827  -3.6401  -3.5879  -3.5731  -3.5141  -3.4907  -3.4515
    -0.8809  -0.8633  -0.6651  -0.6440  -0.6048  -0.6003  -0.5844  -0.5334
    -0.4419  -0.4081  -0.3912  -0.3434  -0.3072  -0.2930  -0.2626  -0.2313
    -0.2066  -0.1848  -0.0899   0.1593   1.3652   1.4050   1.4696   1.5002
     1.6094   1.6659   1.6923   1.7367   1.7442   1.7810   1.8309   1.8481
     1.8711   1.8940   1.9257   1.9665   2.0162   2.0606   2.1098   2.1278
     2.1711   2.2475   2.2994   2.3072   2.3181   2.3466   2.4305   2.4806
     2.4982   2.5655   2.8531   2.8695   2.9365   2.9696   3.0263   3.0602
     3.0814   3.1161   3.1309   3.1708   3.2035   3.2231   3.2358   3.2505
     3.2864   3.3354   3.3756   3.3954   3.4387   3.5011   3.5489   3.5773

          k = 0.2276 0.3943-0.6281 ( 15090 PWs)   bands (ev):

   -35.4454 -35.4451 -35.3197 -35.3192 -35.0342 -35.0342 -35.0334 -35.0334
   -35.0333 -35.0333 -16.4438 -16.4435 -16.4274 -16.4273 -16.4235 -16.4234
   -16.3375 -16.3371 -16.3216 -16.3213 -16.3165 -16.3163 -16.1120 -16.1120
   -16.1021 -16.1021 -16.0779 -16.0778 -16.0657 -16.0657 -16.0275 -16.0275
   -16.0190 -16.0190 -16.0063 -16.0063 -16.0028 -16.0028 -15.9841 -15.9841
   -14.6671 -14.6671 -14.6417 -14.6416 -14.6287 -14.6287 -13.0071 -13.0068
   -12.9784 -12.9782 -12.9414 -12.9412 -12.8784 -12.8781 -12.8602 -12.8598
   -12.8248 -12.8245 -12.8145 -12.8145 -12.8033 -12.8030 -12.7936 -12.7934
   -12.6070 -12.6068  -3.5791  -3.5791  -3.5073  -3.5073  -3.4966  -3.4965
    -0.8470  -0.8470  -0.6450  -0.6449  -0.5816  -0.5816  -0.4743  -0.4743
    -0.4078  -0.4078  -0.3594  -0.3593  -0.3046  -0.3046  -0.2542  -0.2542
    -0.1967  -0.1966  -0.0914  -0.0911   1.3998   1.4000   1.5335   1.5336
     1.5855   1.5856   1.6952   1.6953   1.7402   1.7403   1.7915   1.7915
     1.8390   1.8390   1.9143   1.9143   2.0123   2.0124   2.1695   2.1696
     2.2294   2.2296   2.3099   2.3100   2.3451   2.3452   2.4367   2.4368
     2.4956   2.4956   2.8576   2.8576   2.9288   2.9289   3.0584   3.0585
     3.1120   3.1122   3.1313   3.1314   3.2000   3.2001   3.2511   3.2512
     3.3324   3.3326   3.4146   3.4146   3.4397   3.4398   3.5375   3.5376

          k =-0.2276 0.1314 0.3141 ( 15091 PWs)   bands (ev):

   -35.4455 -35.4452 -35.3196 -35.3191 -35.0348 -35.0337 -35.0336 -35.0336
   -35.0331 -35.0331 -16.4856 -16.4722 -16.4388 -16.4333 -16.4284 -16.4238
   -16.3203 -16.3169 -16.3136 -16.3106 -16.2910 -16.2895 -16.1048 -16.0977
   -16.0928 -16.0848 -16.0829 -16.0727 -16.0689 -16.0431 -16.0423 -16.0361
   -16.0255 -16.0238 -16.0068 -16.0052 -16.0010 -15.9982 -15.9940 -15.9828
   -14.7705 -14.6665 -14.6528 -14.6469 -14.6336 -14.6204 -13.0483 -12.9795
   -12.9706 -12.9669 -12.9602 -12.9411 -12.8799 -12.8641 -12.8504 -12.8476
   -12.8375 -12.8249 -12.7959 -12.7912 -12.7882 -12.7859 -12.7838 -12.7823
   -12.6375 -12.5853  -3.6723  -3.5653  -3.5441  -3.5284  -3.4853  -3.4638
    -0.8307  -0.7949  -0.6905  -0.6540  -0.6247  -0.6084  -0.5943  -0.4914
    -0.4683  -0.3962  -0.3762  -0.3517  -0.3260  -0.3027  -0.2766  -0.2358
    -0.2258  -0.1916  -0.1037   0.1587   1.3281   1.3641   1.5246   1.5291
     1.5557   1.6474   1.6747   1.6972   1.7056   1.7818   1.8182   1.8712
     1.8771   1.9116   1.9460   1.9891   2.0153   2.0582   2.1297   2.1895
     2.2170   2.2698   2.2936   2.3074   2.3570   2.3684   2.3922   2.4400
     2.4777   2.5658   2.8507   2.8774   2.8948   2.9476   2.9678   3.0634
     3.0783   3.0987   3.1360   3.1840   3.2088   3.2261   3.2539   3.2929
     3.3270   3.3419   3.3625   3.4033   3.4780   3.5130   3.5325   3.5790

          k = 0.2276-0.3943-0.3141 ( 15096 PWs)   bands (ev):

   -35.4455 -35.4452 -35.3196 -35.3191 -35.0348 -35.0337 -35.0336 -35.0336
   -35.0331 -35.0331 -16.4827 -16.4767 -16.4366 -16.4320 -16.4285 -16.4249
   -16.3177 -16.3159 -16.3145 -16.3126 -16.2908 -16.2898 -16.1075 -16.1035
   -16.0879 -16.0853 -16.0823 -16.0740 -16.0685 -16.0425 -16.0411 -16.0363
   -16.0253 -16.0237 -16.0070 -16.0048 -16.0006 -15.9989 -15.9929 -15.9835
   -14.7280 -14.6823 -14.6707 -14.6483 -14.6371 -14.6248 -13.0300 -12.9935
   -12.9719 -12.9678 -12.9554 -12.9284 -12.9035 -12.8649 -12.8580 -12.8398
   -12.8382 -12.8287 -12.7952 -12.7920 -12.7890 -12.7847 -12.7828 -12.7810
   -12.6317 -12.5827  -3.6401  -3.5879  -3.5731  -3.5141  -3.4907  -3.4515
    -0.8809  -0.8633  -0.6651  -0.6439  -0.6048  -0.6003  -0.5844  -0.5335
    -0.4419  -0.4081  -0.3912  -0.3434  -0.3072  -0.2930  -0.2626  -0.2313
    -0.2066  -0.1847  -0.0898   0.1593   1.3652   1.4050   1.4695   1.5003
     1.6093   1.6659   1.6923   1.7366   1.7442   1.7810   1.8309   1.8481
     1.8711   1.8940   1.9257   1.9665   2.0162   2.0607   2.1098   2.1278
     2.1711   2.2476   2.2994   2.3072   2.3181   2.3466   2.4305   2.4806
     2.4982   2.5656   2.8531   2.8695   2.9366   2.9696   3.0263   3.0601
     3.0814   3.1161   3.1310   3.1708   3.2035   3.2230   3.2358   3.2503
     3.2863   3.3355   3.3756   3.3954   3.4387   3.5011   3.5490   3.5773

!    total energy              =   -1667.38027993 Ry
     Harris-Foulkes estimate   =   -1667.38027993 Ry
     estimated scf accuracy    <          2.0E-09 Ry

     The total energy is the sum of the following terms:

     one-electron contribution =    -652.17461897 Ry
     hartree contribution      =     447.32538368 Ry
     xc contribution           =    -322.34815348 Ry
     ewald contribution        =   -1140.18289115 Ry

     convergence has been achieved in  26 iterations

     Forces acting on atoms (Ry/au):


     negative rho (up, down):  0.201E-02 0.000E+00
     atom   1 type  1   force =     0.00000000    0.00000000   -0.00214047
     atom   2 type  1   force =     0.00000000    0.00000000   -0.00215592
     atom   3 type  1   force =     0.00000000    0.00000000    0.00164581
     atom   4 type  1   force =     0.00000000    0.00000000    0.00162924
     atom   5 type  1   force =     0.00523853    0.01791109    0.00123715
     atom   6 type  1   force =    -0.00522814   -0.01791456    0.00125612
     atom   7 type  1   force =    -0.01813073   -0.00441884    0.00123715
     atom   8 type  1   force =     0.01289219   -0.01349225    0.00123715
     atom   9 type  1   force =    -0.01290040    0.01348498    0.00125612
     atom  10 type  1   force =     0.01812854    0.00442958    0.00125612
     atom  11 type  2   force =     0.01219515   -0.01030966    0.00182256
     atom  12 type  2   force =    -0.01221208    0.01061517    0.00030020
     atom  13 type  2   force =     0.00283085    0.01571614    0.00182256
     atom  14 type  2   force =    -0.01502601   -0.00540648    0.00182256
     atom  15 type  2   force =     0.01529905    0.00526839    0.00030020
     atom  16 type  2   force =    -0.00308697   -0.01588356    0.00030020
     atom  17 type  3   force =     0.10351010   -0.07197113   -0.00112605
     atom  18 type  3   force =    -0.10354095    0.07197160   -0.00114176
     atom  19 type  3   force =     0.01057377    0.12562794   -0.00112605
     atom  20 type  3   force =    -0.11408387   -0.05365681   -0.00112605
     atom  21 type  3   force =     0.11409971    0.05368330   -0.00114176
     atom  22 type  3   force =    -0.01055876   -0.12565489   -0.00114176
     atom  23 type  3   force =    -0.10454163   -0.07065369    0.00358183
[...]
     1.4905   1.5226   1.6478   2.1184   2.7593   2.8275   2.8640   3.0218
     3.0725   3.2317   3.2776   3.3459   3.3715   3.4157   3.4175   3.4852
     3.4898   3.5143   3.5465   3.5975   3.6226   3.6981   3.7333   3.7601
     3.8743   3.9057   3.9262   3.9624   4.1199   4.1772   4.1800   4.3091
     4.3764   4.4121   4.7388   4.7616   4.8666   4.9057   4.9345   4.9600
     5.0175   5.0240   5.0317   5.1316   5.1685   5.2318   5.2782   5.2995
     5.3205   5.3465   5.3888   5.4038   5.4360   5.5664   5.6322   5.6477

          k = 0.0000-0.5665 0.3391 ( 15106 PWs)   bands (ev):

   -32.1282 -32.1258 -32.0424 -32.0391 -31.8196 -31.8155 -31.8154 -31.8151
   -31.8132 -31.8132 -14.4573 -14.4421 -14.3939 -14.3679 -14.2972 -14.2397
   -13.5307 -13.5051 -13.3686 -13.3458 -13.3328 -13.2739 -13.2334 -13.2122
   -13.1991 -13.1855 -13.1360 -13.1143 -13.1032 -13.0893 -13.0714 -13.0304
   -13.0277 -12.9847 -12.9623 -12.9529 -12.9470 -12.9019 -12.8922 -12.8827
   -12.8274 -12.8190 -12.7292 -12.7204 -12.7048 -12.7030 -11.5997 -11.5939
   -11.4997 -11.4942 -11.4774 -11.4457 -11.3945 -11.3748 -11.3262 -11.3223
   -11.2873 -11.2428 -11.2419 -11.1984 -11.1831 -11.1387 -11.1119 -11.1016
   -10.8948 -10.8451  -1.3028  -1.2249  -1.1293  -1.0902  -1.0105  -0.9367
     0.5763   0.6095   0.8310   0.8726   0.8855   0.9275   0.9811   1.0205
     1.0207   1.1908   1.1987   1.2904   1.3076   1.3724   1.4110   1.4505
     1.5103   1.5236   1.5995   1.9097   2.8027   2.8411   2.9510   3.0271
     3.0291   3.1731   3.2374   3.2811   3.3036   3.3289   3.3728   3.3797
     3.4263   3.4500   3.5491   3.6074   3.6244   3.6981   3.7443   3.7567
     3.9019   3.9718   3.9929   4.0014   4.0624   4.1082   4.1586   4.3199
     4.3485   4.3846   4.7173   4.7406   4.8573   4.9055   4.9623   4.9859
     5.0422   5.0543   5.0959   5.0989   5.1664   5.1833   5.2394   5.2770
     5.3216   5.3561   5.3867   5.4214   5.4502   5.5283   5.6165   5.6408

          k = 0.0000-0.5665-0.6782 ( 15148 PWs)   bands (ev):

   -32.1270 -32.1245 -32.0438 -32.0403 -31.8174 -31.8173 -31.8144 -31.8144
   -31.8143 -31.8143 -14.4523 -14.4521 -14.3751 -14.3750 -14.3222 -14.3222
   -13.4193 -13.4189 -13.3748 -13.3742 -13.3250 -13.3249 -13.3081 -13.3079
   -13.2290 -13.2281 -13.1991 -13.1979 -13.1130 -13.1126 -12.9593 -12.9589
   -12.9480 -12.9476 -12.9333 -12.9332 -12.8869 -12.8868 -12.8771 -12.8770
   -12.7772 -12.7765 -12.7160 -12.7157 -12.6714 -12.6712 -11.5225 -11.5219
   -11.5083 -11.5077 -11.4703 -11.4700 -11.3693 -11.3692 -11.3414 -11.3412
   -11.3156 -11.3152 -11.2566 -11.2560 -11.2077 -11.2075 -11.1666 -11.1664
   -10.8689 -10.8685  -1.1742  -1.1741  -1.0580  -1.0578  -1.0269  -1.0267
     0.6469   0.6470   0.8447   0.8451   0.9929   0.9930   1.0865   1.0869
     1.1090   1.1094   1.2601   1.2609   1.3267   1.3270   1.4527   1.4530
     1.5073   1.5078   1.5876   1.5889   2.8616   2.8617   3.0032   3.0035
     3.1603   3.1604   3.2151   3.2153   3.2700   3.2702   3.2794   3.2796
     3.3632   3.3634   3.4854   3.4855   3.5574   3.5575   3.8613   3.8614
     3.9543   3.9545   4.0429   4.0431   4.0895   4.0900   4.1975   4.1982
     4.3343   4.3346   4.7139   4.7142   4.8715   4.8722   4.9937   4.9939
     5.0639   5.0642   5.1073   5.1074   5.1564   5.1566   5.2455   5.2457
     5.3543   5.3544   5.4274   5.4275   5.4621   5.4622   5.6116   5.6117

          k = 0.2453 0.4249 0.0000 ( 15118 PWs)   bands (ev):

   -32.1294 -32.1271 -32.0411 -32.0379 -31.8206 -31.8159 -31.8159 -31.8142
   -31.8127 -31.8127 -14.4655 -14.4246 -14.3891 -14.3573 -14.3031 -14.1476
   -13.5760 -13.4955 -13.4000 -13.3171 -13.2982 -13.2528 -13.2469 -13.2186
   -13.2045 -13.1591 -13.1380 -13.1089 -13.1058 -13.0655 -13.0610 -13.0097
   -13.0004 -12.9965 -12.9919 -12.9885 -12.9700 -12.9617 -12.9379 -12.9203
   -12.8868 -12.8153 -12.7893 -12.7428 -12.7345 -12.6970 -11.6674 -11.6076
   -11.5558 -11.5208 -11.5088 -11.4481 -11.3533 -11.3275 -11.3101 -11.2725
   -11.2491 -11.2092 -11.1946 -11.1884 -11.1849 -11.0868 -11.0732 -11.0175
   -10.9096 -10.8368  -1.3781  -1.2612  -1.2456  -1.0588  -1.0148  -0.9138
     0.5263   0.5552   0.7292   0.8254   0.8856   0.9574   0.9755   0.9815
     1.0674   1.1063   1.1440   1.2092   1.2793   1.4134   1.4171   1.4899
     1.5021   1.5113   1.6501   2.1188   2.7552   2.8393   2.8713   2.9724
     3.1429   3.2402   3.2569   3.3412   3.4036   3.4197   3.4312   3.4458
     3.4843   3.5219   3.5818   3.5840   3.5946   3.6931   3.7340   3.7974
     3.8073   3.8519   3.9014   4.0293   4.1489   4.1634   4.2181   4.2859
     4.3544   4.4210   4.7413   4.7770   4.8424   4.8786   4.9295   4.9580
     5.0167   5.0400   5.1159   5.1463   5.1560   5.1840   5.2287   5.3322
     5.3470   5.3490   5.3776   5.4195   5.4369   5.5413   5.6143   5.6663

          k = 0.2453 0.4249 0.3391 ( 15096 PWs)   bands (ev):

   -32.1282 -32.1258 -32.0424 -32.0391 -31.8196 -31.8155 -31.8154 -31.8151
   -31.8132 -31.8132 -14.4637 -14.4316 -14.3856 -14.3668 -14.3306 -14.2181
   -13.5468 -13.4895 -13.3947 -13.3333 -13.2977 -13.2792 -13.2548 -13.2157
   -13.1926 -13.1816 -13.1389 -13.1233 -13.0997 -13.0854 -13.0681 -13.0366
   -13.0239 -12.9763 -12.9680 -12.9587 -12.9285 -12.9197 -12.8899 -12.8826
   -12.8491 -12.7730 -12.7632 -12.7211 -12.7152 -12.6814 -11.6070 -11.5588
   -11.5277 -11.5011 -11.4844 -11.4459 -11.3848 -11.3672 -11.3506 -11.3024
   -11.2796 -11.2595 -11.2341 -11.1960 -11.1834 -11.1319 -11.1202 -11.0983
   -10.8965 -10.8448  -1.3044  -1.1953  -1.1804  -1.0601  -1.0197  -0.9343
     0.5791   0.6002   0.8203   0.8673   0.9075   0.9462   0.9666   0.9862
     1.1095   1.1494   1.1936   1.2823   1.3159   1.3641   1.3910   1.4557
     1.5082   1.5279   1.6036   1.9102   2.7912   2.8637   2.9468   2.9755
     3.1106   3.1926   3.2061   3.2865   3.3008   3.3338   3.3758   3.3937
     3.4222   3.4603   3.4960   3.5384   3.6667   3.6986   3.7536   3.8159
     3.8585   3.9347   3.9780   4.0421   4.0600   4.1230   4.1970   4.2929
     4.3202   4.3943   4.7333   4.7474   4.8411   4.8837   4.9590   4.9948
     5.0255   5.0603   5.0965   5.1482   5.1633   5.2044   5.2219   5.2865
     5.3009   5.3544   5.3947   5.4079   5.4530   5.5284   5.6116   5.6414

          k = 0.2453 0.4249-0.6782 ( 15090 PWs)   bands (ev):

   -32.1270 -32.1245 -32.0438 -32.0403 -31.8174 -31.8173 -31.8144 -31.8143
   -31.8143 -31.8143 -14.4518 -14.4516 -14.3757 -14.3756 -14.3224 -14.3222
   -13.4208 -13.4202 -13.3717 -13.3711 -13.3275 -13.3266 -13.2951 -13.2947
   -13.2309 -13.2302 -13.2174 -13.2164 -13.1057 -13.1051 -12.9594 -12.9591
   -12.9468 -12.9463 -12.9343 -12.9342 -12.8853 -12.8852 -12.8775 -12.8775
   -12.7863 -12.7854 -12.7020 -12.7018 -12.6763 -12.6762 -11.5176 -11.5170
   -11.5037 -11.5032 -11.4833 -11.4827 -11.3689 -11.3687 -11.3413 -11.3409
   -11.3168 -11.3165 -11.2609 -11.2602 -11.1926 -11.1925 -11.1730 -11.1727
   -10.8699 -10.8695  -1.1746  -1.1745  -1.0567  -1.0565  -1.0275  -1.0272
     0.6423   0.6423   0.8683   0.8686   0.9587   0.9589   1.0648   1.0651
     1.1714   1.1716   1.2395   1.2396   1.3400   1.3407   1.4191   1.4193
     1.5240   1.5241   1.5862   1.5873   2.8820   2.8821   3.0113   3.0116
     3.1094   3.1097   3.1979   3.1981   3.2799   3.2801   3.3196   3.3197
     3.3685   3.3686   3.4527   3.4529   3.5749   3.5751   3.8752   3.8755
     3.9646   3.9648   4.0397   4.0401   4.0534   4.0535   4.2334   4.2339
     4.3125   4.3129   4.7259   4.7260   4.8577   4.8579   4.9994   4.9996
     5.0503   5.0505   5.0987   5.0989   5.1989   5.1992   5.2361   5.2364
     5.3466   5.3468   5.4295   5.4297   5.4609   5.4611   5.6095   5.6095

          k =-0.2453 0.1416 0.3391 ( 15091 PWs)   bands (ev):

   -32.1282 -32.1258 -32.0424 -32.0391 -31.8196 -31.8155 -31.8154 -31.8151
   -31.8132 -31.8132 -14.4729 -14.4074 -14.3970 -14.3728 -14.2911 -14.2545
   -13.5986 -13.4488 -13.3721 -13.3497 -13.3128 -13.2833 -13.2393 -13.2295
   -13.1908 -13.1553 -13.1384 -13.1331 -13.1110 -13.0713 -13.0639 -13.0263
   -13.0239 -12.9818 -12.9763 -12.9581 -12.9341 -12.9013 -12.8927 -12.8830
   -12.8145 -12.7998 -12.7816 -12.7451 -12.6921 -12.6810 -11.6358 -11.5500
   -11.5357 -11.4737 -11.4642 -11.4210 -11.3920 -11.3587 -11.3341 -11.3098
   -11.3046 -11.2529 -11.2387 -11.2110 -11.1923 -11.1342 -11.1302 -11.0908
   -10.9054 -10.8395  -1.3738  -1.1579  -1.1244  -1.0788  -1.0075  -0.9616
     0.6560   0.6809   0.8047   0.8609   0.8676   0.9286   0.9833   1.0386
     1.0471   1.1721   1.2487   1.2803   1.3077   1.3592   1.3715   1.4413
     1.4526   1.5195   1.5717   1.9076   2.7500   2.7968   2.9948   3.0199
     3.0686   3.1877   3.2034   3.2571   3.2916   3.3246   3.3503   3.4056
     3.4243   3.4479   3.4908   3.5746   3.6029   3.7170   3.7764   3.8710
     3.9287   3.9753   4.0013   4.0286   4.1016   4.1296   4.1625   4.2219
     4.2909   4.3925   4.7410   4.7439   4.7707   4.8417   4.9421   5.0058
     5.0440   5.0622   5.0973   5.1491   5.1892   5.2160   5.2175   5.2780
     5.3155   5.3714   5.4134   5.4506   5.5027   5.5578   5.5843   5.6374

          k = 0.2453-0.4249-0.3391 ( 15096 PWs)   bands (ev):

   -32.1282 -32.1258 -32.0424 -32.0391 -31.8196 -31.8155 -31.8154 -31.8151
   -31.8132 -31.8132 -14.4636 -14.4315 -14.3856 -14.3669 -14.3306 -14.2181
   -13.5468 -13.4895 -13.3947 -13.3332 -13.2975 -13.2792 -13.2545 -13.2156
   -13.1929 -13.1820 -13.1389 -13.1232 -13.0997 -13.0850 -13.0679 -13.0367
   -13.0240 -12.9764 -12.9679 -12.9590 -12.9284 -12.9195 -12.8899 -12.8826
   -12.8494 -12.7728 -12.7631 -12.7213 -12.7150 -12.6815 -11.6070 -11.5587
   -11.5277 -11.5011 -11.4845 -11.4459 -11.3848 -11.3671 -11.3505 -11.3023
   -11.2796 -11.2590 -11.2348 -11.1960 -11.1834 -11.1319 -11.1202 -11.0983
   -10.8965 -10.8449  -1.3044  -1.1953  -1.1803  -1.0601  -1.0197  -0.9344
     0.5790   0.6001   0.8204   0.8674   0.9074   0.9461   0.9665   0.9863
     1.1095   1.1494   1.1936   1.2823   1.3159   1.3642   1.3913   1.4558
     1.5082   1.5278   1.6031   1.9103   2.7912   2.8639   2.9467   2.9757
     3.1106   3.1923   3.2061   3.2867   3.3008   3.3338   3.3758   3.3936
     3.4223   3.4605   3.4961   3.5385   3.6667   3.6984   3.7537   3.8159
     3.8584   3.9350   3.9782   4.0417   4.0599   4.1231   4.1979   4.2925
     4.3199   4.3940   4.7333   4.7474   4.8409   4.8836   4.9589   4.9950
     5.0254   5.0604   5.0966   5.1481   5.1634   5.2045   5.2221   5.2866
     5.3009   5.3544   5.3946   5.4079   5.4530   5.5282   5.6116   5.6413

!    total energy              =   -1668.22508788 Ry
     Harris-Foulkes estimate   =   -1668.22508788 Ry
     estimated scf accuracy    <          1.2E-10 Ry

     The total energy is the sum of the following terms:

     one-electron contribution =    -528.08578534 Ry
     hartree contribution      =     410.74856375 Ry
     xc contribution           =    -327.74403813 Ry
     ewald contribution        =   -1223.14382816 Ry

     convergence has been achieved in   6 iterations

     Forces acting on atoms (Ry/au):


     negative rho (up, down):  0.188E-02 0.000E+00
     atom   1 type  1   force =     0.00000000    0.00000000    0.00002688
     atom   2 type  1   force =     0.00000000    0.00000000    0.00002547
     atom   3 type  1   force =     0.00000000    0.00000000    0.00000895
     atom   4 type  1   force =     0.00000000    0.00000000    0.00001438
     atom   5 type  1   force =     0.00003474    0.00002446   -0.00001955
     atom   6 type  1   force =    -0.00003592   -0.00002481   -0.00001558
     atom   7 type  1   force =    -0.00003855    0.00001786   -0.00001955
     atom   8 type  1   force =     0.00000381   -0.00004231   -0.00001955
     atom   9 type  1   force =    -0.00000352    0.00004351   -0.00001558
     atom  10 type  1   force =     0.00003944   -0.00001871   -0.00001558
     atom  11 type  2   force =    -0.00000478   -0.00000042    0.00000041
     atom  12 type  2   force =     0.00000957   -0.00001516    0.00001667
     atom  13 type  2   force =     0.00000276   -0.00000393    0.00000041
     atom  14 type  2   force =     0.00000203    0.00000435    0.00000041
     atom  15 type  2   force =    -0.00001791   -0.00000071    0.00001667
     atom  16 type  2   force =     0.00000834    0.00001587    0.00001667
     atom  17 type  3   force =    -0.00002263   -0.00001128    0.00000376
     atom  18 type  3   force =     0.00001394    0.00001371   -0.00000711
     atom  19 type  3   force =     0.00002109   -0.00001395    0.00000376
     atom  20 type  3   force =     0.00000154    0.00002524    0.00000376
     atom  21 type  3   force =     0.00000490   -0.00001893   -0.00000711
     atom  22 type  3   force =    -0.00001885    0.00000522   -0.00000711
     atom  23 type  3   force =    -0.00000411    0.00003690   -0.00000706
     atom  24 type  3   force =     0.00000380   -0.00003280   -0.00000980
     atom  25 type  3   force =    -0.00002990   -0.00002201   -0.00000706
     atom  26 type  3   force =     0.00003401   -0.00001489   -0.00000706
     atom  27 type  3   force =    -0.00003031    0.00001311   -0.00000980
     atom  28 type  3   force =     0.00002651    0.00001969   -0.00000980
     atom  29 type  3   force =     0.00001844   -0.00000031    0.00002289
     atom  30 type  3   force =    -0.00002231    0.00001026    0.00000511
     atom  31 type  3   force =    -0.00000895    0.00001613    0.00002289
     atom  32 type  3   force =    -0.00000949   -0.00001582    0.00002289
     atom  33 type  3   force =     0.00002004    0.00001419    0.00000511
     atom  34 type  3   force =     0.00000226   -0.00002445    0.00000511
     atom  35 type  3   force =    -0.00000739   -0.00002656    0.00000491
     atom  36 type  3   force =     0.00001220    0.00002129    0.00001437
     atom  37 type  3   force =     0.00002670    0.00000689    0.00000491
     atom  38 type  3   force =    -0.00001931    0.00001968    0.00000491
     atom  39 type  3   force =     0.00001234   -0.00002121    0.00001437
     atom  40 type  3   force =    -0.00002454   -0.00000008    0.00001437
     atom  41 type  3   force =     0.00000000    0.00000000   -0.00002397
     atom  42 type  3   force =     0.00000000    0.00000000   -0.00001778
     atom  43 type  4   force =     0.00000000    0.00000000   -0.00003512
     atom  44 type  4   force =     0.00000000    0.00000000   -0.00002586

     Total force =     0.000199     Total SCF correction =     0.000015


     entering subroutine stress ...


     negative rho (up, down):  0.188E-02 0.000E+00
          total   stress  (Ry/bohr**3)                   (kbar)     P=    0.01
   0.00000010   0.00000000   0.00000000          0.01      0.00      0.00
   0.00000000   0.00000010   0.00000000          0.00      0.01      0.00
   0.00000000   0.00000000   0.00000005          0.00      0.00      0.01


     bfgs converged in  43 scf cycles and  37 bfgs steps
     (criteria: energy < 0.10E-06, force < 0.10E-02, cell < 0.50E+00)

     End of BFGS Geometry Optimization

     Final enthalpy =   -1668.2250878795 Ry
Begin final coordinates
     new unit-cell volume =   3632.75725 a.u.^3 (   538.31908 Ang^3 )

CELL_PARAMETERS (alat= 17.62853047)
   1.019122681   0.000000000   0.000000000
  -0.509561340   0.882586131   0.000000000
   0.000000000   0.000000000   0.737232513

ATOMIC_POSITIONS (crystal)
Ca       0.333333333  -0.333333333   0.000823293
Ca      -0.333333333   0.333333333   0.500725678
Ca      -0.333333333   0.333333333  -0.002149030
Ca       0.333333333  -0.333333333  -0.502049258
Ca       0.249449538  -0.001467488   0.249689045
Ca      -0.249464369   0.001484421  -0.250403652
Ca       0.001467488   0.250917027   0.249689045
Ca      -0.250917027  -0.249449538   0.249689045
Ca       0.250948791   0.249464369  -0.250403652
Ca      -0.001484421  -0.250948791  -0.250403652
P        0.399301662   0.368852163   0.250801853
P       -0.399241898  -0.368822417  -0.249039520
P       -0.368852163   0.030449498   0.250801853
P       -0.030449498  -0.399301662   0.250801853
P        0.030419481   0.399241898  -0.249039520
P        0.368822417  -0.030419481  -0.249039520
O        0.330907507   0.486929518   0.252263943
O       -0.330834908  -0.486887150  -0.247721541
O       -0.486929518  -0.156022011   0.252263943
O        0.156022011  -0.330907507   0.252263943
O       -0.156052242   0.330834908  -0.247721541
O        0.486887150   0.156052242  -0.247721541
O       -0.410555517   0.464653234   0.245686459
O        0.410608215  -0.464631268  -0.254088583
O       -0.464653234   0.124791249   0.245686459
O       -0.124791249   0.410555517   0.245686459
O        0.124760517  -0.410608215  -0.254088583
O        0.464631268  -0.124760517  -0.254088583
O        0.337662765   0.254603166   0.070407118
O       -0.337715354  -0.254619988  -0.429506683
O       -0.254603166   0.083059598   0.070407118
O       -0.083059598  -0.337662765   0.070407118
O        0.083095365   0.337715354  -0.429506683
O        0.254619988  -0.083095365  -0.429506683
O       -0.347513975  -0.258868501  -0.065132456
O        0.347657305   0.258950107   0.434774168
O        0.258868501  -0.088645474  -0.065132456
O        0.088645474   0.347513975  -0.065132456
O       -0.088707198  -0.347657305   0.434774168
O       -0.258950107   0.088707198   0.434774168
O        0.000000000   0.000000000  -0.214003341
O        0.000000000   0.000000000   0.286225136
H        0.000000000   0.000000000  -0.071496337
H        0.000000000   0.000000000   0.428733409
End final coordinates



     Writing output data file HAP_fullopt_40_r1.fullopt.in.save
 
     init_run     :     41.90s CPU     42.18s WALL (       1 calls)
     electrons    :  35752.33s CPU  36105.90s WALL (      43 calls)
     update_pot   :    201.47s CPU    202.38s WALL (      42 calls)
     forces       :   1172.40s CPU   1173.86s WALL (      43 calls)
     stress       :   4488.15s CPU   4491.01s WALL (      43 calls)

     Called by init_run:
     wfcinit      :     32.36s CPU     32.50s WALL (       1 calls)
     potinit      :      1.61s CPU      1.62s WALL (       1 calls)

     Called by electrons:
     c_bands      :  30410.05s CPU  30728.49s WALL (     373 calls)
     sum_band     :   4066.69s CPU   4094.71s WALL (     373 calls)
     v_of_rho     :     57.81s CPU     58.06s WALL (     390 calls)
     newd         :   1330.97s CPU   1331.45s WALL (     390 calls)
     mix_rho      :     11.39s CPU     11.32s WALL (     373 calls)

     Called by c_bands:
     init_us_2    :     93.46s CPU     94.22s WALL (   11662 calls)
     cegterg      :  30148.82s CPU  30447.89s WALL (    5222 calls)

     Called by *egterg:
     h_psi        :  16529.19s CPU  16557.58s WALL (   21351 calls)
     s_psi        :   2219.09s CPU   2220.41s WALL (   21351 calls)
     g_psi        :     69.70s CPU     69.60s WALL (   16115 calls)
     cdiaghg      :   5504.89s CPU   5507.24s WALL (   20385 calls)

     Called by h_psi:
     add_vuspsi   :   2237.02s CPU   2237.93s WALL (   21351 calls)

     General routines
     calbec       :   3881.59s CPU   3883.26s WALL (   27777 calls)
     cft3s        :  11473.15s CPU  11491.56s WALL ( 5426648 calls)
     interpolate  :     11.93s CPU     12.21s WALL (     763 calls)
     davcio       :      0.33s CPU     41.82s WALL (   16884 calls)
 
     Parallel routines
     fft_scatter  :   4650.08s CPU   4639.89s WALL ( 5426648 calls)
 
     PWSCF        :    11h37m CPU time,       11h43m WALL time

 
   This run was terminated on:   3:47:32  18Dec2010            

=------------------------------------------------------------------------------=
   JOB DONE.
=------------------------------------------------------------------------------=
