Process 0 of 1 is on node09 - thread support 1
initial socket setup ...start
initial socket setup ...done 
now start server 0 ... 
                  Welcome to Q-Chem
     A Quantum Leap Into The Future Of Chemistry

 Y. Shao, L. Fusti-Molnar, Y. Jung, J. Kussmann, C. Ochsenfeld,
 S. T. Brown, A. T. B. Gilbert, L. V. Slipchenko,S. V. Levchenko,
 D. P. O'Neill, R. A. DiStasio Jr., R. C. Lochan, T. Wang,
 G. J. O. Beran, N. A. Besley, J. M. Herbert, C. Y. Lin,
 T. Van Voorhis, S. H. Chien, A. Sodt, R. P. Steele, 
 V. A. Rassolov, P. E. Maslen, P. P. Korambath, R. D. Adamson,
 B. Austin, J. Baker, E. F. C. Byrd, H. Dachsel, R. J. Doerksen,
 A. Dreuw, B. D. Dunietz, A. D. Dutoi, T. R. Furlani,
 S. R. Gwaltney, A. Heyden, S. Hirata, C.-P. Hsu, G. Kedziora,
 R. Z. Khaliullin, P. Klunzinger, A. M. Lee, M. S. Lee, W. Liang,
 I. Lotan, N. Nair, B. Peters, E. I. Proynov, P. A. Pieniazek, 
 Y. M. Rhee, J. Ritchie, E. Rosta, C. D. Sherrill, 
 A. C. Simmonett, J. E. Subotnik, H. L. Woodcock III,
 W. Zhang, A. T. Bell, A. K. Chakraborty, D. M. Chipman,
 F. J. Keil, A. Warshel, W. J. Hehre, H. F. Schaefer III,
 J. Kong, A. I. Krylov, P. M. W. Gill, M. Head-Gordon,
 Q-Chem, Version 3.1, Q-Chem, Inc., Pittsburgh, PA (2007).

 Additional authors for Version 3.1: 
 Z. Gan, Y. Zhao, N. E. Schultz, D. Truhlar, E. Epifanovsky and M. Oana.

 Additional authors for Version 3.2: 
 R. Baer, B. R. Brooks, D. Casanova, J.-D. Chai, C.-L. Cheng, 
 C. Cramer, D. Crittenden, A. Ghysels, G. Hawkins, E. G. Hohenstein, 
 C. Kelley, W. Kurlancheek, D. Liotard, E. Livshits, P. Manohar, 
 A. Marenich, D. Neuhauser, R. Olson, M. A. Rohrdanz, K. S. Thanthiriwatte, 
 A. J. W. Thom, V. Vanovschi, C. F. Williams, Q. Wu and Z.-Q. You. 


 Intel X86 EM64T Linux Version

 Q-chem begins on Tue Apr  7 07:48:12 2009  

 Parallel job on  1  processors
Processing $rem in /usr/local/qchem3201/config/preferences.

theFileMan(): MAXOPENFILES=974 MAX_SUB_FILE_NUM=16
Maximum size of a physical file is 2.0 GB, maximum size of a tmp-file is 32.0 GB


--------------------------------------------------------------
User input:
--------------------------------------------------------------
$comment
  benzene RB3LYP/6-31G*
$end

$molecule
0 1
 C 
 H  1 1.087067
 C  1 1.396635 2 119.996547
 H  3 1.087031 1 119.994472 2 0.000000 0
 C  3 1.396532 1 119.996547 2 -180.000000 0
 H  5 1.087031 3 120.008982 1 -180.000000 0
 C  1 1.396635 2 119.996547 3 -180.000000 0
 H  7 1.087031 1 119.994472 2 0.000000 0
 C  7 1.396532 1 119.996547 2 -180.000000 0
 H  9 1.087031 7 120.008981 1 -180.000000 0
 C  9 1.396635 7 119.996547 1 0.000000 0
 H  11 1.087067 9 119.996547 7 -180.000000 0
$end

$rem
  sym_ignore          TRUE
  jobtype             SP
  exchange            B3LYP
  basis               6-31G*
  unrestricted        FALSE
  print_general_basis TRUE
  print_orbitals      TRUE
$end

--------------------------------------------------------------
 Writing REM_CC_EA           12
 ----------------------------------------------------
       Standard Nuclear Orientation (Angstroms)
    I     Atom         X            Y            Z
 ----------------------------------------------------
    1      C       0.000000     0.000000     0.000000
    2      H       0.000000     0.000000     1.087067
    3      C       1.209563     0.000000    -0.698245
    4      H       2.150875     0.000000    -0.154582
    5      C       1.209563     0.000000    -2.094777
    6      H       2.150875     0.000000    -2.638440
    7      C      -1.209563     0.000000    -0.698245
    8      H      -2.150875     0.000000    -0.154582
    9      C      -1.209563     0.000000    -2.094777
   10      H      -2.150875     0.000000    -2.638440
   11      C       0.000000     0.000000    -2.793021
   12      H       0.000000     0.000000    -3.880088
 ----------------------------------------------------
 Nuclear Repulsion Energy =   203.1877372793 hartrees
 There are       21 alpha and       21 beta electrons
 Requested basis set is 6-31G(d)
Basis set in general basis input format:
-----------------------------------------------------------------------
$basis
C    0
S    6    1.000000
   3.04752490E+03    1.83470000E-03 
   4.57369510E+02    1.40373000E-02 
   1.03948690E+02    6.88426000E-02 
   2.92101550E+01    2.32184400E-01 
   9.28666300E+00    4.67941300E-01 
   3.16392700E+00    3.62312000E-01 
SP   3    1.000000
   7.86827240E+00   -1.19332400E-01   6.89991000E-02 
   1.88128850E+00   -1.60854200E-01   3.16424000E-01 
   5.44249300E-01    1.14345640E+00   7.44308300E-01 
SP   1    1.000000
   1.68714400E-01    1.00000000E+00   1.00000000E+00 
D    1    1.000000
   8.00000000E-01    1.00000000E+00 
****
H    0
S    3    1.000000
   1.87311370E+01    3.34946000E-02 
   2.82539370E+00    2.34726950E-01 
   6.40121700E-01    8.13757330E-01 
S    1    1.000000
   1.61277800E-01    1.00000000E+00 
****
C    0
S    6    1.000000
   3.04752490E+03    1.83470000E-03 
   4.57369510E+02    1.40373000E-02 
   1.03948690E+02    6.88426000E-02 
   2.92101550E+01    2.32184400E-01 
   9.28666300E+00    4.67941300E-01 
   3.16392700E+00    3.62312000E-01 
SP   3    1.000000
   7.86827240E+00   -1.19332400E-01   6.89991000E-02 
   1.88128850E+00   -1.60854200E-01   3.16424000E-01 
   5.44249300E-01    1.14345640E+00   7.44308300E-01 
SP   1    1.000000
   1.68714400E-01    1.00000000E+00   1.00000000E+00 
D    1    1.000000
   8.00000000E-01    1.00000000E+00 
****
H    0
S    3    1.000000
   1.87311370E+01    3.34946000E-02 
   2.82539370E+00    2.34726950E-01 
   6.40121700E-01    8.13757330E-01 
S    1    1.000000
   1.61277800E-01    1.00000000E+00 
****
C    0
S    6    1.000000
   3.04752490E+03    1.83470000E-03 
   4.57369510E+02    1.40373000E-02 
   1.03948690E+02    6.88426000E-02 
   2.92101550E+01    2.32184400E-01 
   9.28666300E+00    4.67941300E-01 
   3.16392700E+00    3.62312000E-01 
SP   3    1.000000
   7.86827240E+00   -1.19332400E-01   6.89991000E-02 
   1.88128850E+00   -1.60854200E-01   3.16424000E-01 
   5.44249300E-01    1.14345640E+00   7.44308300E-01 
SP   1    1.000000
   1.68714400E-01    1.00000000E+00   1.00000000E+00 
D    1    1.000000
   8.00000000E-01    1.00000000E+00 
****
H    0
S    3    1.000000
   1.87311370E+01    3.34946000E-02 
   2.82539370E+00    2.34726950E-01 
   6.40121700E-01    8.13757330E-01 
S    1    1.000000
   1.61277800E-01    1.00000000E+00 
****
C    0
S    6    1.000000
   3.04752490E+03    1.83470000E-03 
   4.57369510E+02    1.40373000E-02 
   1.03948690E+02    6.88426000E-02 
   2.92101550E+01    2.32184400E-01 
   9.28666300E+00    4.67941300E-01 
   3.16392700E+00    3.62312000E-01 
SP   3    1.000000
   7.86827240E+00   -1.19332400E-01   6.89991000E-02 
   1.88128850E+00   -1.60854200E-01   3.16424000E-01 
   5.44249300E-01    1.14345640E+00   7.44308300E-01 
SP   1    1.000000
   1.68714400E-01    1.00000000E+00   1.00000000E+00 
D    1    1.000000
   8.00000000E-01    1.00000000E+00 
****
H    0
S    3    1.000000
   1.87311370E+01    3.34946000E-02 
   2.82539370E+00    2.34726950E-01 
   6.40121700E-01    8.13757330E-01 
S    1    1.000000
   1.61277800E-01    1.00000000E+00 
****
C    0
S    6    1.000000
   3.04752490E+03    1.83470000E-03 
   4.57369510E+02    1.40373000E-02 
   1.03948690E+02    6.88426000E-02 
   2.92101550E+01    2.32184400E-01 
   9.28666300E+00    4.67941300E-01 
   3.16392700E+00    3.62312000E-01 
SP   3    1.000000
   7.86827240E+00   -1.19332400E-01   6.89991000E-02 
   1.88128850E+00   -1.60854200E-01   3.16424000E-01 
   5.44249300E-01    1.14345640E+00   7.44308300E-01 
SP   1    1.000000
   1.68714400E-01    1.00000000E+00   1.00000000E+00 
D    1    1.000000
   8.00000000E-01    1.00000000E+00 
****
H    0
S    3    1.000000
   1.87311370E+01    3.34946000E-02 
   2.82539370E+00    2.34726950E-01 
   6.40121700E-01    8.13757330E-01 
S    1    1.000000
   1.61277800E-01    1.00000000E+00 
****
C    0
S    6    1.000000
   3.04752490E+03    1.83470000E-03 
   4.57369510E+02    1.40373000E-02 
   1.03948690E+02    6.88426000E-02 
   2.92101550E+01    2.32184400E-01 
   9.28666300E+00    4.67941300E-01 
   3.16392700E+00    3.62312000E-01 
SP   3    1.000000
   7.86827240E+00   -1.19332400E-01   6.89991000E-02 
   1.88128850E+00   -1.60854200E-01   3.16424000E-01 
   5.44249300E-01    1.14345640E+00   7.44308300E-01 
SP   1    1.000000
   1.68714400E-01    1.00000000E+00   1.00000000E+00 
D    1    1.000000
   8.00000000E-01    1.00000000E+00 
****
H    0
S    3    1.000000
   1.87311370E+01    3.34946000E-02 
   2.82539370E+00    2.34726950E-01 
   6.40121700E-01    8.13757330E-01 
S    1    1.000000
   1.61277800E-01    1.00000000E+00 
****
$end
-----------------------------------------------------------------------
 There are 36 shells and 102 basis functions

Total QAlloc Memory Limit   2000 MB
Mega-Array Size        61 MB
MEM_STATIC part        62 MB

                       Distance Matrix (Angstroms)
             C (  1)   H (  2)   C (  3)   H (  4)   C (  5)   H (  6)
   H (  2)  1.087067
   C (  3)  1.396635  2.156474
   H (  4)  2.156422  2.483536  1.087031
   C (  5)  2.418911  3.403994  1.396532  2.156484
   H (  6)  3.404060  4.301821  2.156484  2.483858  1.087031
   C (  7)  1.396635  2.156474  2.419127  3.404132  2.793291  3.880322
   H (  8)  2.156422  2.483536  3.404132  4.301749  3.880322  4.967353
   C (  9)  2.418911  3.403994  2.793291  3.880322  2.419127  3.404132
   H ( 10)  3.404060  4.301821  3.880322  4.967353  3.404132  4.301749
   C ( 11)  2.793021  3.880088  2.418911  3.404060  1.396635  2.156422
   H ( 12)  3.880088  4.967155  3.403994  4.301821  2.156474  2.483536
             C (  7)   H (  8)   C (  9)   H ( 10)   C ( 11)
   H (  8)  1.087031
   C (  9)  1.396532  2.156484
   H ( 10)  2.156484  2.483858  1.087031
   C ( 11)  2.418911  3.404060  1.396635  2.156422
   H ( 12)  3.403994  4.301821  2.156474  2.483536  1.087067
 
 A cutoff of  1.0D-08 yielded    624 shell pairs
 There are   5343 function pairs
Evaluating contribution to one-electron hamiltonian from nuclear
 Smallest overlap matrix eigenvalue = 5.21E-04
 Multipole matrices computed through 2nd order

  Scale SEOQF with 1.000000e-01/1.000000e+00/1.000000e-01

 Standard Electronic Orientation quadrupole field applied
 Nucleus-field energy     =    -0.0000000126 hartrees
 Guess from superposition of atomic densities
 Warning:  Energy on first SCF cycle will be non-variational
 A restricted hybrid HF-DFT SCF calculation will be
 performed using Pulay DIIS extrapolation
 Exchange:     0.2000 Hartree-Fock + 0.0800 Slater + 0.7200 Becke
 Correlation:  0.8100 LYP + 0.1900 VWN1RPA
 Using SG-1 standard quadrature grid
 SCF converges when DIIS error is below 1.0E-05
 ---------------------------------------
  Cycle       Energy         DIIS Error
 ---------------------------------------
    1    -233.5078680570      7.88E-02
    2    -232.1553725697      7.87E-03
    3    -232.1560097307      8.11E-03
    4    -232.2484400563      4.76E-04
    5    -232.2486925352      6.67E-05
    6    -232.2486981053      2.13E-06 Convergence criterion met
 ---------------------------------------
 SCF time:  CPU 18.85 s  wall 12.06 s
 Analysis of SCF Wavefunction
 
 --------------------------------------------------------------
                    Orbital Energies (a.u.)
 --------------------------------------------------------------
 
 Alpha MOs
 -- Occupied --
-10.188 -10.187 -10.187 -10.187 -10.187 -10.187  -0.846  -0.740
 -0.740  -0.597  -0.597  -0.519  -0.459  -0.438  -0.417  -0.417
 -0.359  -0.340  -0.340  -0.246  -0.246
 -- Virtual --
  0.004   0.004   0.091   0.145   0.145   0.164   0.182   0.182
  0.190   0.303   0.303   0.319   0.319   0.475   0.527   0.549
  0.550   0.564   0.592   0.602   0.602   0.602   0.602   0.627
  0.627   0.667   0.668   0.745   0.840   0.840   0.841   0.865
  0.865   0.939   0.939   0.940   0.958   1.083   1.083   1.142
  1.143   1.201   1.262   1.396   1.436   1.436   1.487   1.487
  1.515   1.515   1.757   1.790   1.857   1.896   1.973   1.974
  2.066   2.066   2.152   2.152   2.154   2.154   2.309   2.310
  2.322   2.546   2.546   2.657   2.705   2.705   2.722   2.722
  2.760   3.017   3.410   4.085   4.118   4.118   4.330   4.330
  4.666
 --------------------------------------------------------------
 

                        RESTRICTED (RHF) MOLECULAR ORBITAL COEFFICIENTS
                         1         2         3         4         5         6
 eigenvalues:        -10.188   -10.187   -10.187   -10.187   -10.187   -10.187
   1  C 1   s        0.40214   0.57814  -0.01969   0.56796  -0.01661  -0.40803
   2  C 1   s        0.01961   0.02868  -0.00098   0.02861  -0.00084  -0.02118
   3  C 1   px       0.00000  -0.00001  -0.00030   0.00001   0.00023   0.00000
   4  C 1   py       0.00000   0.00000   0.00000   0.00000   0.00000   0.00000
   5  C 1   pz       0.00013  -0.00004   0.00000  -0.00025   0.00001   0.00027
   6  C 1   s       -0.00256  -0.00599   0.00021  -0.01124   0.00032   0.02042
   7  C 1   px       0.00000   0.00005   0.00154  -0.00004  -0.00146   0.00000
   8  C 1   py       0.00000   0.00000   0.00000   0.00000   0.00000   0.00000
   9  C 1   pz      -0.00035   0.00041  -0.00002   0.00230  -0.00006  -0.00848
  10  C 1   dxx     -0.00400  -0.00560   0.00019  -0.00499   0.00015   0.00335
  11  C 1   dxy      0.00000   0.00000   0.00000   0.00000   0.00000   0.00000
  12  C 1   dyy     -0.00404  -0.00563   0.00019  -0.00540   0.00016   0.00366
  13  C 1   dxz      0.00000   0.00000   0.00004   0.00000  -0.00012   0.00000
  14  C 1   dyz      0.00000   0.00000   0.00000   0.00000   0.00000   0.00000
  15  C 1   dzz     -0.00391  -0.00557   0.00019  -0.00522   0.00015   0.00355
  16  H 1   s       -0.00019  -0.00025   0.00001  -0.00021   0.00001   0.00031
  17  H 1   s        0.00090   0.00093  -0.00003   0.00067  -0.00002   0.00094
  18  C 2   s        0.40028   0.30594   0.48467  -0.29846  -0.48949   0.41023
  19  C 2   s        0.01952   0.01517   0.02404  -0.01503  -0.02466   0.02129
  20  C 2   px       0.00011   0.00011  -0.00011   0.00021   0.00013  -0.00024
  21  C 2   py       0.00000   0.00000   0.00000   0.00000   0.00000   0.00000
  22  C 2   pz       0.00007  -0.00023   0.00012  -0.00011   0.00021  -0.00014
  23  C 2   s       -0.00249  -0.00300  -0.00496   0.00581   0.00980  -0.02041
  24  C 2   px      -0.00031  -0.00054   0.00068  -0.00163  -0.00140   0.00734
  25  C 2   py       0.00000   0.00000   0.00000   0.00000   0.00000   0.00000
  26  C 2   pz      -0.00019   0.00120  -0.00056   0.00050  -0.00169   0.00423
  27  C 2   dxx     -0.00391  -0.00298  -0.00466   0.00264   0.00450  -0.00353
  28  C 2   dxy      0.00000   0.00000   0.00000   0.00000   0.00000   0.00000
  29  C 2   dyy     -0.00402  -0.00298  -0.00472   0.00284   0.00465  -0.00368
  30  C 2   dxz      0.00005   0.00003   0.00000   0.00011   0.00007  -0.00010
  31  C 2   dyz      0.00000   0.00000   0.00000   0.00000   0.00000   0.00000
  32  C 2   dzz     -0.00396  -0.00294  -0.00471   0.00273   0.00430  -0.00342
  33  H 2   s       -0.00019  -0.00013  -0.00021   0.00011   0.00018  -0.00031
  34  H 2   s        0.00090   0.00051   0.00078  -0.00036  -0.00056  -0.00093
  35  C 3   s        0.40658  -0.26090   0.50644  -0.28020   0.50399  -0.40412
  36  C 3   s        0.01983  -0.01294   0.02512  -0.01412   0.02540  -0.02098
  37  C 3   px       0.00011  -0.00012  -0.00010   0.00021  -0.00014   0.00023
  38  C 3   py       0.00000   0.00000   0.00000   0.00000   0.00000   0.00000
  39  C 3   pz      -0.00006  -0.00024  -0.00011   0.00011   0.00021  -0.00014
  40  C 3   s       -0.00254   0.00256  -0.00519   0.00570  -0.01012   0.02028
  41  C 3   px      -0.00033   0.00059   0.00064  -0.00171   0.00149  -0.00730
  42  C 3   py       0.00000   0.00000   0.00000   0.00000   0.00000   0.00000
  43  C 3   pz       0.00016   0.00124   0.00047  -0.00049  -0.00166   0.00424
  44  C 3   dxx     -0.00398   0.00255  -0.00487   0.00247  -0.00462   0.00347
  45  C 3   dxy      0.00000   0.00000   0.00000   0.00000   0.00000   0.00000
  46  C 3   dyy     -0.00408   0.00254  -0.00493   0.00266  -0.00479   0.00362
  47  C 3   dxz     -0.00005   0.00003   0.00000  -0.00011   0.00007  -0.00010
  48  C 3   dyz      0.00000   0.00000   0.00000   0.00000   0.00000   0.00000
  49  C 3   dzz     -0.00402   0.00250  -0.00492   0.00257  -0.00443   0.00337
  50  H 3   s       -0.00019   0.00011  -0.00022   0.00011  -0.00019   0.00031
  51  H 3   s        0.00091  -0.00043   0.00082  -0.00031   0.00058   0.00094
  52  C 4   s        0.39893   0.27320  -0.50381  -0.26830   0.50658   0.41166
  53  C 4   s        0.01945   0.01354  -0.02499  -0.01351   0.02552   0.02136
  54  C 4   px      -0.00011  -0.00012  -0.00010  -0.00020   0.00014   0.00024
  55  C 4   py       0.00000   0.00000   0.00000   0.00000   0.00000   0.00000
  56  C 4   pz       0.00007  -0.00023  -0.00011  -0.00012  -0.00021  -0.00014
  57  C 4   s       -0.00248  -0.00267   0.00512   0.00520  -0.01010  -0.02043
  58  C 4   px       0.00032   0.00058   0.00063   0.00154  -0.00148  -0.00734
  59  C 4   py       0.00000   0.00000   0.00000   0.00000   0.00000   0.00000
  60  C 4   pz      -0.00019   0.00123   0.00048   0.00060   0.00165   0.00423
  61  C 4   dxx     -0.00390  -0.00267   0.00485   0.00236  -0.00465  -0.00354
  62  C 4   dxy      0.00000   0.00000   0.00000   0.00000   0.00000   0.00000
  63  C 4   dyy     -0.00401  -0.00266   0.00491   0.00255  -0.00481  -0.00369
  64  C 4   dxz     -0.00005  -0.00003   0.00000  -0.00011   0.00007   0.00010
  65  C 4   dyz      0.00000   0.00000   0.00000   0.00000   0.00000   0.00000
  66  C 4   dzz     -0.00395  -0.00262   0.00489   0.00247  -0.00446  -0.00344
  67  H 4   s       -0.00019  -0.00012   0.00022   0.00010  -0.00019  -0.00031
  68  H 4   s        0.00090   0.00046  -0.00082  -0.00033   0.00059  -0.00093
  69  C 5   s        0.40615  -0.29324  -0.48919  -0.31076  -0.48494  -0.40460
  70  C 5   s        0.01981  -0.01454  -0.02427  -0.01566  -0.02444  -0.02101
  71  C 5   px      -0.00011   0.00011  -0.00011  -0.00022  -0.00013  -0.00023
  72  C 5   py       0.00000   0.00000   0.00000   0.00000   0.00000   0.00000
  73  C 5   pz      -0.00006  -0.00023   0.00012   0.00010  -0.00021  -0.00014
  74  C 5   s       -0.00254   0.00289   0.00503   0.00631   0.00971   0.02029
  75  C 5   px       0.00033  -0.00055   0.00069   0.00179   0.00137   0.00730
  76  C 5   py       0.00000   0.00000   0.00000   0.00000   0.00000   0.00000
  77  C 5   pz       0.00016   0.00121  -0.00054  -0.00039   0.00168   0.00425
  78  C 5   dxx     -0.00397   0.00286   0.00470   0.00275   0.00445   0.00348
  79  C 5   dxy      0.00000   0.00000   0.00000   0.00000   0.00000   0.00000
  80  C 5   dyy     -0.00408   0.00286   0.00476   0.00295   0.00461   0.00363
  81  C 5   dxz      0.00005  -0.00003   0.00000   0.00011   0.00007   0.00010
  82  C 5   dyz      0.00000   0.00000   0.00000   0.00000   0.00000   0.00000
  83  C 5   dzz     -0.00402   0.00281   0.00475   0.00284   0.00426   0.00337
  84  H 5   s       -0.00019   0.00012   0.00021   0.00012   0.00018   0.00031
  85  H 5   s        0.00091  -0.00048  -0.00079  -0.00035  -0.00056   0.00094
  86  C 6   s        0.41647  -0.57333   0.01844   0.57207  -0.01787   0.39448
  87  C 6   s        0.02032  -0.02845   0.00092   0.02884  -0.00090   0.02050
  88  C 6   px       0.00000  -0.00001  -0.00030  -0.00001  -0.00023   0.00000
  89  C 6   py       0.00000   0.00000   0.00000   0.00000   0.00000   0.00000
  90  C 6   pz      -0.00013  -0.00004   0.00000   0.00026  -0.00001   0.00027
  91  C 6   s       -0.00272   0.00603  -0.00020  -0.01166   0.00038  -0.02015
  92  C 6   px       0.00000   0.00005   0.00155   0.00004   0.00145   0.00000
  93  C 6   py       0.00000   0.00000   0.00000   0.00000   0.00000   0.00000
  94  C 6   pz       0.00034   0.00044  -0.00002  -0.00250   0.00008  -0.00842
  95  C 6   dxx     -0.00414   0.00555  -0.00018  -0.00502   0.00016  -0.00323
  96  C 6   dxy      0.00000   0.00000   0.00000   0.00000   0.00000   0.00000
  97  C 6   dyy     -0.00418   0.00558  -0.00018  -0.00543   0.00017  -0.00353
  98  C 6   dxz      0.00000   0.00000  -0.00004   0.00000  -0.00012   0.00000
  99  C 6   dyz      0.00000   0.00000   0.00000   0.00000   0.00000   0.00000
 100  C 6   dzz     -0.00404   0.00552  -0.00018  -0.00525   0.00016  -0.00343
 101  H 6   s       -0.00020   0.00025  -0.00001  -0.00022   0.00001  -0.00031
 102  H 6   s        0.00092  -0.00091   0.00003   0.00064  -0.00002  -0.00096
                         7         8         9        10        11        12
 eigenvalues:         -0.846    -0.740    -0.740    -0.597    -0.597    -0.519
   1  C 1   s       -0.09407   0.00033  -0.13076   0.00001  -0.10249   0.00856
   2  C 1   s        0.17966  -0.00065   0.25817  -0.00002   0.21209  -0.01796
   3  C 1   px       0.00000  -0.11489  -0.00029  -0.20484  -0.00002   0.00000
   4  C 1   py       0.00000   0.00000   0.00000   0.00000   0.00000   0.00000
   5  C 1   pz      -0.06039   0.00005  -0.02158  -0.00001   0.07074  -0.19897
   6  C 1   s        0.11402  -0.00049   0.19297  -0.00002   0.16076  -0.03085
   7  C 1   px       0.00000  -0.01815  -0.00004  -0.05393   0.00000   0.00000
   8  C 1   py       0.00000   0.00000   0.00000   0.00000   0.00000   0.00000
   9  C 1   pz      -0.00720  -0.00002   0.00995  -0.00001   0.05739  -0.06828
  10  C 1   dxx      0.00303  -0.00001   0.00257   0.00000  -0.00731  -0.00348
  11  C 1   dxy      0.00000   0.00000   0.00000   0.00000   0.00000   0.00000
  12  C 1   dyy     -0.01073   0.00003  -0.01273   0.00000  -0.00817   0.00014
  13  C 1   dxz      0.00000   0.01068   0.00003   0.00923   0.00000   0.00000
  14  C 1   dyz      0.00000   0.00000   0.00000   0.00000   0.00000   0.00000
  15  C 1   dzz      0.00300   0.00000   0.00121   0.00000   0.00329  -0.00035
  16  H 1   s        0.03556  -0.00020   0.07828  -0.00001   0.11419  -0.10828
  17  H 1   s        0.00420  -0.00004   0.01437   0.00000   0.03820  -0.06710
  18  C 2   s       -0.09408   0.11341  -0.06510   0.08875   0.05125   0.00857
  19  C 2   s        0.17968  -0.22390   0.12852  -0.18364  -0.10605  -0.01797
  20  C 2   px      -0.05231  -0.01236  -0.05913  -0.00184  -0.11934  -0.17235
  21  C 2   py       0.00000   0.00000   0.00000   0.00000   0.00000   0.00000
  22  C 2   pz      -0.03023   0.05892   0.08092  -0.11935   0.13595  -0.09954
  23  C 2   s        0.11397  -0.16739   0.09612  -0.13922  -0.08037  -0.03092
  24  C 2   px      -0.00620  -0.01196  -0.00362  -0.02954  -0.04819  -0.05910
  25  C 2   py       0.00000   0.00000   0.00000   0.00000   0.00000   0.00000
  26  C 2   pz      -0.00358   0.00352   0.01611  -0.04817   0.02609  -0.03414
  27  C 2   dxx      0.00302   0.00264   0.00772  -0.00402   0.00567  -0.00112
  28  C 2   dxy      0.00000   0.00000   0.00000   0.00000   0.00000   0.00000
  29  C 2   dyy     -0.01072   0.01104  -0.00634   0.00707   0.00408   0.00014
  30  C 2   dxz     -0.00001  -0.00207  -0.00497  -0.00228  -0.00664   0.00157
  31  C 2   dyz      0.00000   0.00000   0.00000   0.00000   0.00000   0.00000
  32  C 2   dzz      0.00303  -0.00592  -0.00583   0.00749  -0.00367  -0.00269
  33  H 2   s        0.03556  -0.06788   0.03898  -0.09889  -0.05709  -0.10832
  34  H 2   s        0.00419  -0.01246   0.00716  -0.03309  -0.01910  -0.06714
  35  C 3   s       -0.09408   0.11309   0.06566  -0.08876   0.05123   0.00857
  36  C 3   s        0.17968  -0.22326  -0.12963   0.18366  -0.10602  -0.01797
  37  C 3   px      -0.05231  -0.01265   0.05907   0.00186  -0.11934  -0.17235
  38  C 3   py       0.00000   0.00000   0.00000   0.00000   0.00000   0.00000
  39  C 3   pz       0.03022  -0.05933   0.08063  -0.11933  -0.13597   0.09954
  40  C 3   s        0.11397  -0.16691  -0.09696   0.13924  -0.08035  -0.03092
  41  C 3   px      -0.00620  -0.01198   0.00356   0.02955  -0.04819  -0.05911
  42  C 3   py       0.00000   0.00000   0.00000   0.00000   0.00000   0.00000
  43  C 3   pz       0.00358  -0.00360   0.01609  -0.04817  -0.02609   0.03414
  44  C 3   dxx      0.00302   0.00268  -0.00770   0.00402   0.00568  -0.00112
  45  C 3   dxy      0.00000   0.00000   0.00000   0.00000   0.00000   0.00000
  46  C 3   dyy     -0.01072   0.01101   0.00639  -0.00707   0.00408   0.00014
  47  C 3   dxz      0.00001   0.00210  -0.00496  -0.00229   0.00664  -0.00157
  48  C 3   dyz      0.00000   0.00000   0.00000   0.00000   0.00000   0.00000
  49  C 3   dzz      0.00303  -0.00595   0.00580  -0.00749  -0.00367  -0.00269
  50  H 3   s        0.03556  -0.06768  -0.03932   0.09890  -0.05708  -0.10832
  51  H 3   s        0.00419  -0.01243  -0.00722   0.03310  -0.01910  -0.06714
  52  C 4   s       -0.09408  -0.11308  -0.06567  -0.08876   0.05123   0.00857
  53  C 4   s        0.17968   0.22325   0.12964   0.18366  -0.10602  -0.01797
  54  C 4   px       0.05231  -0.01265   0.05907  -0.00186   0.11934   0.17235
  55  C 4   py       0.00000   0.00000   0.00000   0.00000   0.00000   0.00000
  56  C 4   pz      -0.03023  -0.05933   0.08062   0.11932   0.13597  -0.09954
  57  C 4   s        0.11397   0.16690   0.09697   0.13924  -0.08035  -0.03092
  58  C 4   px       0.00620  -0.01198   0.00356  -0.02955   0.04819   0.05910
  59  C 4   py       0.00000   0.00000   0.00000   0.00000   0.00000   0.00000
  60  C 4   pz      -0.00358  -0.00360   0.01609   0.04817   0.02609  -0.03414
  61  C 4   dxx      0.00302  -0.00268   0.00770   0.00402   0.00568  -0.00112
  62  C 4   dxy      0.00000   0.00000   0.00000   0.00000   0.00000   0.00000
  63  C 4   dyy     -0.01072  -0.01101  -0.00639  -0.00707   0.00408   0.00014
  64  C 4   dxz      0.00001  -0.00210   0.00496  -0.00229   0.00664  -0.00157
  65  C 4   dyz      0.00000   0.00000   0.00000   0.00000   0.00000   0.00000
  66  C 4   dzz      0.00303   0.00595  -0.00580  -0.00749  -0.00367  -0.00269
  67  H 4   s        0.03556   0.06768   0.03932   0.09890  -0.05707  -0.10832
  68  H 4   s        0.00419   0.01243   0.00723   0.03310  -0.01910  -0.06714
  69  C 5   s       -0.09408  -0.11341   0.06509   0.08875   0.05125   0.00857
  70  C 5   s        0.17968   0.22391  -0.12851  -0.18364  -0.10606  -0.01797
  71  C 5   px       0.05231  -0.01236  -0.05913   0.00183   0.11934   0.17235
  72  C 5   py       0.00000   0.00000   0.00000   0.00000   0.00000   0.00000
  73  C 5   pz       0.03022   0.05892   0.08093   0.11936  -0.13595   0.09954
  74  C 5   s        0.11398   0.16739  -0.09612  -0.13922  -0.08038  -0.03092
  75  C 5   px       0.00620  -0.01196  -0.00362   0.02954   0.04819   0.05910
  76  C 5   py       0.00000   0.00000   0.00000   0.00000   0.00000   0.00000
  77  C 5   pz       0.00358   0.00352   0.01611   0.04817  -0.02609   0.03414
  78  C 5   dxx      0.00302  -0.00264  -0.00772  -0.00402   0.00567  -0.00112
  79  C 5   dxy      0.00000   0.00000   0.00000   0.00000   0.00000   0.00000
  80  C 5   dyy     -0.01072  -0.01104   0.00634   0.00707   0.00408   0.00014
  81  C 5   dxz     -0.00001   0.00207   0.00497  -0.00228  -0.00664   0.00157
  82  C 5   dyz      0.00000   0.00000   0.00000   0.00000   0.00000   0.00000
  83  C 5   dzz      0.00303   0.00592   0.00583   0.00749  -0.00367  -0.00269
  84  H 5   s        0.03556   0.06788  -0.03898  -0.09889  -0.05709  -0.10832
  85  H 5   s        0.00419   0.01246  -0.00716  -0.03309  -0.01910  -0.06714
  86  C 6   s       -0.09408  -0.00033   0.13076   0.00001  -0.10249   0.00856
  87  C 6   s        0.17967   0.00065  -0.25817  -0.00002   0.21208  -0.01796
  88  C 6   px       0.00000  -0.11490  -0.00029   0.20484   0.00002   0.00000
  89  C 6   py       0.00000   0.00000   0.00000   0.00000   0.00000   0.00000
  90  C 6   pz       0.06040   0.00005  -0.02158   0.00001  -0.07075   0.19898
  91  C 6   s        0.11402   0.00048  -0.19297  -0.00001   0.16076  -0.03085
  92  C 6   px       0.00000  -0.01815  -0.00005   0.05394   0.00001   0.00000
  93  C 6   py       0.00000   0.00000   0.00000   0.00000   0.00000   0.00000
  94  C 6   pz       0.00720  -0.00003   0.00995   0.00001  -0.05738   0.06829
  95  C 6   dxx      0.00303   0.00001  -0.00257   0.00000  -0.00731  -0.00348
  96  C 6   dxy      0.00000   0.00000   0.00000   0.00000   0.00000   0.00000
  97  C 6   dyy     -0.01073  -0.00003   0.01273   0.00000  -0.00817   0.00014
  98  C 6   dxz      0.00000  -0.01068  -0.00003   0.00923   0.00000   0.00000
  99  C 6   dyz      0.00000   0.00000   0.00000   0.00000   0.00000   0.00000
 100  C 6   dzz      0.00300   0.00000  -0.00121   0.00000   0.00329  -0.00035
 101  H 6   s        0.03556   0.00020  -0.07828  -0.00001   0.11419  -0.10829
 102  H 6   s        0.00420   0.00004  -0.01437   0.00000   0.03820  -0.06711
                        13        14        15        16        17        18
 eigenvalues:         -0.459    -0.438    -0.417    -0.417    -0.359    -0.340
   1  C 1   s        0.05922   0.00000   0.00003   0.02368   0.00000  -0.00505
   2  C 1   s       -0.12150   0.00000  -0.00006  -0.05479   0.00000   0.02060
   3  C 1   px       0.00000   0.27505  -0.08638   0.00010   0.00000   0.00050
   4  C 1   py       0.00000   0.00000   0.00000   0.00000   0.22201   0.00000
   5  C 1   pz      -0.13384   0.00000   0.00034   0.30597   0.00000  -0.22561
   6  C 1   s       -0.16140   0.00000  -0.00010  -0.09457   0.00000  -0.02528
   7  C 1   px       0.00000   0.09259   0.01972  -0.00002   0.00000   0.00020
   8  C 1   py       0.00000   0.00000   0.00000   0.00000   0.12888   0.00000
   9  C 1   pz      -0.03888   0.00000   0.00011   0.09494   0.00000  -0.03894
  10  C 1   dxx      0.01563   0.00000   0.00000  -0.00315   0.00000   0.01468
  11  C 1   dxy      0.00000   0.00000   0.00000   0.00000   0.00000   0.00000
  12  C 1   dyy      0.00469   0.00000   0.00000   0.00072   0.00000   0.00112
  13  C 1   dxz      0.00000  -0.00383   0.01350  -0.00002   0.00000  -0.00002
  14  C 1   dyz      0.00000   0.00000   0.00000   0.00000  -0.00956   0.00000
  15  C 1   dzz     -0.01262   0.00000   0.00001   0.01164   0.00000  -0.02344
  16  H 1   s       -0.14059   0.00000   0.00019   0.16626   0.00000  -0.17075
  17  H 1   s       -0.09789   0.00000   0.00018   0.15780   0.00000  -0.19523
  18  C 2   s       -0.05920   0.00001   0.02052   0.01184   0.00000   0.00252
  19  C 2   s        0.12147  -0.00003  -0.04744  -0.02738   0.00000  -0.01026
  20  C 2   px       0.11604  -0.13747   0.20813   0.16956   0.00000  -0.01900
  21  C 2   py       0.00000   0.00000   0.00000   0.00000   0.22203   0.00000
  22  C 2   pz       0.06698   0.23832   0.16974   0.01157   0.00000   0.25769
  23  C 2   s        0.16141  -0.00004  -0.08197  -0.04730   0.00000   0.01261
  24  C 2   px       0.03372  -0.04626   0.07623   0.03249   0.00000  -0.02883
  25  C 2   py       0.00000   0.00000   0.00000   0.00000   0.12880   0.00000
  26  C 2   pz       0.01944   0.08016   0.03257   0.03850   0.00000   0.08872
  27  C 2   dxx      0.00556   0.00289   0.01192  -0.00482   0.00000   0.01446
  28  C 2   dxy      0.00000   0.00000   0.00000   0.00000  -0.00828   0.00000
  29  C 2   dyy     -0.00469   0.00000   0.00063   0.00036   0.00000  -0.00055
  30  C 2   dxz      0.01414  -0.00192   0.00303   0.00953   0.00000   0.00449
  31  C 2   dyz      0.00000   0.00000   0.00000   0.00000  -0.00479   0.00000
  32  C 2   dzz     -0.00856  -0.00288  -0.00457   0.00905   0.00000  -0.01009
  33  H 2   s        0.14066   0.00008   0.14404   0.08290   0.00000   0.08509
  34  H 2   s        0.09795   0.00007   0.13667   0.07869   0.00000   0.09727
  35  C 3   s        0.05920   0.00001   0.02049  -0.01189   0.00000   0.00254
  36  C 3   s       -0.12146  -0.00003  -0.04738   0.02749   0.00000  -0.01033
  37  C 3   px      -0.11603  -0.13748   0.20775  -0.17003   0.00000  -0.01811
  38  C 3   py       0.00000   0.00000   0.00000   0.00000   0.22203   0.00000
  39  C 3   pz       0.06699  -0.23832  -0.16972   0.01194   0.00000  -0.25762
  40  C 3   s       -0.16141  -0.00005  -0.08187   0.04748   0.00000   0.01269
  41  C 3   px      -0.03372  -0.04626   0.07615  -0.03266   0.00000  -0.02862
  42  C 3   py       0.00000   0.00000   0.00000   0.00000   0.12881   0.00000
  43  C 3   pz       0.01944  -0.08016  -0.03248   0.03857   0.00000  -0.08861
  44  C 3   dxx     -0.00556   0.00289   0.01193   0.00479   0.00000   0.01449
  45  C 3   dxy      0.00000   0.00000   0.00000   0.00000  -0.00828   0.00000
  46  C 3   dyy      0.00469   0.00000   0.00063  -0.00036   0.00000  -0.00056
  47  C 3   dxz      0.01414   0.00192  -0.00301   0.00954   0.00000  -0.00456
  48  C 3   dyz      0.00000   0.00000   0.00000   0.00000   0.00478   0.00000
  49  C 3   dzz      0.00856  -0.00288  -0.00459  -0.00904   0.00000  -0.01009
  50  H 3   s       -0.14066   0.00007   0.14386  -0.08322   0.00000   0.08564
  51  H 3   s       -0.09795   0.00006   0.13650  -0.07900   0.00000   0.09791
  52  C 4   s       -0.05920  -0.00001  -0.02049   0.01189   0.00000   0.00253
  53  C 4   s        0.12147   0.00003   0.04738  -0.02749   0.00000  -0.01033
  54  C 4   px      -0.11604  -0.13747   0.20775  -0.17003   0.00000   0.01812
  55  C 4   py       0.00000   0.00000   0.00000   0.00000   0.22203   0.00000
  56  C 4   pz       0.06698  -0.23832  -0.16972   0.01195   0.00000   0.25762
  57  C 4   s        0.16141   0.00004   0.08187  -0.04748   0.00000   0.01269
  58  C 4   px      -0.03372  -0.04625   0.07615  -0.03266   0.00000   0.02862
  59  C 4   py       0.00000   0.00000   0.00000   0.00000   0.12881   0.00000
  60  C 4   pz       0.01944  -0.08016  -0.03248   0.03857   0.00000   0.08861
  61  C 4   dxx      0.00556  -0.00289  -0.01193  -0.00479   0.00000   0.01449
  62  C 4   dxy      0.00000   0.00000   0.00000   0.00000   0.00828   0.00000
  63  C 4   dyy     -0.00469   0.00000  -0.00063   0.00036   0.00000  -0.00056
  64  C 4   dxz     -0.01414  -0.00192   0.00301  -0.00954   0.00000  -0.00456
  65  C 4   dyz      0.00000   0.00000   0.00000   0.00000  -0.00479   0.00000
  66  C 4   dzz     -0.00856   0.00288   0.00459   0.00904   0.00000  -0.01009
  67  H 4   s        0.14066  -0.00008  -0.14385   0.08323   0.00000   0.08564
  68  H 4   s        0.09795  -0.00007  -0.13649   0.07900   0.00000   0.09791
  69  C 5   s        0.05920  -0.00001  -0.02052  -0.01184   0.00000   0.00252
  70  C 5   s       -0.12146   0.00003   0.04744   0.02738   0.00000  -0.01027
  71  C 5   px       0.11604  -0.13748   0.20813   0.16956   0.00000   0.01900
  72  C 5   py       0.00000   0.00000   0.00000   0.00000   0.22203   0.00000
  73  C 5   pz       0.06699   0.23832   0.16974   0.01156   0.00000  -0.25768
  74  C 5   s       -0.16141   0.00005   0.08198   0.04730   0.00000   0.01261
  75  C 5   px       0.03372  -0.04626   0.07623   0.03248   0.00000   0.02883
  76  C 5   py       0.00000   0.00000   0.00000   0.00000   0.12881   0.00000
  77  C 5   pz       0.01944   0.08016   0.03257   0.03849   0.00000  -0.08872
  78  C 5   dxx     -0.00556  -0.00289  -0.01192   0.00482   0.00000   0.01446
  79  C 5   dxy      0.00000   0.00000   0.00000   0.00000   0.00828   0.00000
  80  C 5   dyy      0.00469   0.00000  -0.00063  -0.00036   0.00000  -0.00055
  81  C 5   dxz     -0.01414   0.00192  -0.00303  -0.00953   0.00000   0.00449
  82  C 5   dyz      0.00000   0.00000   0.00000   0.00000   0.00478   0.00000
  83  C 5   dzz      0.00856   0.00288   0.00457  -0.00905   0.00000  -0.01009
  84  H 5   s       -0.14066  -0.00007  -0.14404  -0.08290   0.00000   0.08509
  85  H 5   s       -0.09795  -0.00006  -0.13667  -0.07869   0.00000   0.09727
  86  C 6   s       -0.05922   0.00000  -0.00003  -0.02368   0.00000  -0.00505
  87  C 6   s        0.12150   0.00000   0.00006   0.05479   0.00000   0.02060
  88  C 6   px       0.00000   0.27506  -0.08639   0.00010   0.00000  -0.00050
  89  C 6   py       0.00000   0.00000   0.00000   0.00000   0.22202   0.00000
  90  C 6   pz      -0.13385   0.00000   0.00034   0.30598   0.00000   0.22560
  91  C 6   s        0.16140   0.00000   0.00011   0.09457   0.00000  -0.02528
  92  C 6   px       0.00000   0.09259   0.01972  -0.00002   0.00000  -0.00020
  93  C 6   py       0.00000   0.00000   0.00000   0.00000   0.12888   0.00000
  94  C 6   pz      -0.03888   0.00000   0.00011   0.09494   0.00000   0.03893
  95  C 6   dxx     -0.01564   0.00000   0.00000   0.00315   0.00000   0.01468
  96  C 6   dxy      0.00000   0.00000   0.00000   0.00000   0.00000   0.00000
  97  C 6   dyy     -0.00469   0.00000   0.00000  -0.00072   0.00000   0.00112
  98  C 6   dxz      0.00000   0.00383  -0.01350   0.00002   0.00000  -0.00002
  99  C 6   dyz      0.00000   0.00000   0.00000   0.00000   0.00956   0.00000
 100  C 6   dzz      0.01262   0.00000  -0.00001  -0.01164   0.00000  -0.02344
 101  H 6   s        0.14059   0.00000  -0.00019  -0.16626   0.00000  -0.17075
 102  H 6   s        0.09789   0.00000  -0.00018  -0.15781   0.00000  -0.19522
                        19        20        21        22        23        24
 eigenvalues:         -0.340    -0.246    -0.246     0.004     0.004     0.091
   1  C 1   s        0.00001   0.00000   0.00000   0.00000   0.00000   0.03923
   2  C 1   s       -0.00004   0.00000   0.00000   0.00000   0.00000  -0.06790
   3  C 1   px       0.26837   0.00000   0.00000   0.00000   0.00000   0.00000
   4  C 1   py       0.00000  -0.00436   0.33980  -0.00529   0.36466   0.00000
   5  C 1   pz       0.00042   0.00000   0.00000   0.00000   0.00000  -0.12643
   6  C 1   s        0.00005   0.00000   0.00000   0.00000   0.00000  -0.51189
   7  C 1   px       0.10524   0.00000   0.00000   0.00000   0.00000   0.00000
   8  C 1   py       0.00000  -0.00313   0.24395  -0.00704   0.48487   0.00000
   9  C 1   pz       0.00007   0.00000   0.00000   0.00000   0.00000  -0.28142
  10  C 1   dxx     -0.00003   0.00000   0.00000   0.00000   0.00000  -0.01220
  11  C 1   dxy      0.00000  -0.01881  -0.00024   0.03001   0.00044   0.00000
  12  C 1   dyy      0.00000   0.00000   0.00000   0.00000   0.00000   0.00012
  13  C 1   dxz     -0.01157   0.00000   0.00000   0.00000   0.00000   0.00000
  14  C 1   dyz      0.00000   0.00006  -0.00492  -0.00016   0.01091   0.00000
  15  C 1   dzz      0.00004   0.00000   0.00000   0.00000   0.00000   0.01976
  16  H 1   s        0.00032   0.00000   0.00000   0.00000   0.00000   0.06014
  17  H 1   s        0.00037   0.00000   0.00000   0.00000   0.00000   0.73119
  18  C 2   s       -0.00438   0.00000   0.00000   0.00000   0.00000   0.03923
  19  C 2   s        0.01787   0.00000   0.00000   0.00000   0.00000  -0.06786
  20  C 2   px      -0.23624   0.00000   0.00000   0.00000   0.00000  -0.10950
  21  C 2   py       0.00000  -0.29648   0.16611   0.31844  -0.17780   0.00000
  22  C 2   pz       0.01803   0.00000   0.00000   0.00000   0.00000  -0.06323
  23  C 2   s       -0.02193   0.00000   0.00000   0.00000   0.00000  -0.51204
  24  C 2   px      -0.05550   0.00000   0.00000   0.00000   0.00000  -0.24357
  25  C 2   py       0.00000  -0.21279   0.11932   0.42352  -0.23631   0.00000
  26  C 2   pz       0.02860   0.00000   0.00000   0.00000   0.00000  -0.14071
  27  C 2   dxx     -0.00773   0.00000   0.00000   0.00000   0.00000   0.01178
  28  C 2   dxy      0.00000  -0.00088  -0.01029   0.00093  -0.01771   0.00000
  29  C 2   dyy      0.00097   0.00000   0.00000   0.00000   0.00000   0.00012
  30  C 2   dxz     -0.01941   0.00000   0.00000   0.00000   0.00000   0.01600
  31  C 2   dyz      0.00000   0.01012   0.01301   0.01743   0.02004   0.00000
  32  C 2   dzz      0.00013   0.00000   0.00000   0.00000   0.00000  -0.00420
  33  H 2   s       -0.14802   0.00000   0.00000   0.00000   0.00000   0.06013
  34  H 2   s       -0.16923   0.00000   0.00000   0.00000   0.00000   0.73112
  35  C 3   s        0.00437   0.00000   0.00000   0.00000   0.00000   0.03923
  36  C 3   s       -0.01782   0.00000   0.00000   0.00000   0.00000  -0.06786
  37  C 3   px       0.23630   0.00000   0.00000   0.00000   0.00000  -0.10950
  38  C 3   py       0.00000  -0.29213  -0.17366  -0.31314  -0.18698   0.00000
  39  C 3   pz       0.01899   0.00000   0.00000   0.00000   0.00000   0.06323
  40  C 3   s        0.02189   0.00000   0.00000   0.00000   0.00000  -0.51206
  41  C 3   px       0.05560   0.00000   0.00000   0.00000   0.00000  -0.24359
  42  C 3   py       0.00000  -0.20967  -0.12473  -0.41648  -0.24851   0.00000
  43  C 3   pz       0.02893   0.00000   0.00000   0.00000   0.00000   0.14071
  44  C 3   dxx      0.00768   0.00000   0.00000   0.00000   0.00000   0.01178
  45  C 3   dxy      0.00000  -0.00114   0.01026  -0.00042  -0.01773   0.00000
  46  C 3   dyy     -0.00096   0.00000   0.00000   0.00000   0.00000   0.00012
  47  C 3   dxz     -0.01939   0.00000   0.00000   0.00000   0.00000  -0.01600
  48  C 3   dyz      0.00000  -0.01045   0.01274   0.01800  -0.01952   0.00000
  49  C 3   dzz     -0.00010   0.00000   0.00000   0.00000   0.00000  -0.00420
  50  H 3   s        0.14769   0.00000   0.00000   0.00000   0.00000   0.06014
  51  H 3   s        0.16886   0.00000   0.00000   0.00000   0.00000   0.73115
  52  C 4   s        0.00437   0.00000   0.00000   0.00000   0.00000   0.03923
  53  C 4   s       -0.01783   0.00000   0.00000   0.00000   0.00000  -0.06786
  54  C 4   px      -0.23631   0.00000   0.00000   0.00000   0.00000   0.10950
  55  C 4   py       0.00000   0.29213   0.17367  -0.31315  -0.18697   0.00000
  56  C 4   pz      -0.01900   0.00000   0.00000   0.00000   0.00000  -0.06323
  57  C 4   s        0.02188   0.00000   0.00000   0.00000   0.00000  -0.51204
  58  C 4   px      -0.05561   0.00000   0.00000   0.00000   0.00000   0.24357
  59  C 4   py       0.00000   0.20966   0.12474  -0.41648  -0.24850   0.00000
  60  C 4   pz      -0.02893   0.00000   0.00000   0.00000   0.00000  -0.14071
  61  C 4   dxx      0.00768   0.00000   0.00000   0.00000   0.00000   0.01178
  62  C 4   dxy      0.00000  -0.00114   0.01027   0.00042   0.01773   0.00000
  63  C 4   dyy     -0.00096   0.00000   0.00000   0.00000   0.00000   0.00012
  64  C 4   dxz     -0.01939   0.00000   0.00000   0.00000   0.00000  -0.01600
  65  C 4   dyz      0.00000  -0.01045   0.01274  -0.01800   0.01952   0.00000
  66  C 4   dzz     -0.00010   0.00000   0.00000   0.00000   0.00000  -0.00420
  67  H 4   s        0.14770   0.00000   0.00000   0.00000   0.00000   0.06013
  68  H 4   s        0.16886   0.00000   0.00000   0.00000   0.00000   0.73112
  69  C 5   s       -0.00438   0.00000   0.00000   0.00000   0.00000   0.03923
  70  C 5   s        0.01786   0.00000   0.00000   0.00000   0.00000  -0.06786
  71  C 5   px       0.23623   0.00000   0.00000   0.00000   0.00000   0.10951
  72  C 5   py       0.00000   0.29649  -0.16611   0.31844  -0.17780   0.00000
  73  C 5   pz      -0.01803   0.00000   0.00000   0.00000   0.00000   0.06323
  74  C 5   s       -0.02193   0.00000   0.00000   0.00000   0.00000  -0.51207
  75  C 5   px       0.05549   0.00000   0.00000   0.00000   0.00000   0.24359
  76  C 5   py       0.00000   0.21280  -0.11931   0.42352  -0.23632   0.00000
  77  C 5   pz      -0.02859   0.00000   0.00000   0.00000   0.00000   0.14071
  78  C 5   dxx     -0.00773   0.00000   0.00000   0.00000   0.00000   0.01178
  79  C 5   dxy      0.00000  -0.00088  -0.01029  -0.00093   0.01771   0.00000
  80  C 5   dyy      0.00097   0.00000   0.00000   0.00000   0.00000   0.00012
  81  C 5   dxz     -0.01941   0.00000   0.00000   0.00000   0.00000   0.01600
  82  C 5   dyz      0.00000   0.01012   0.01301  -0.01743  -0.02004   0.00000
  83  C 5   dzz      0.00013   0.00000   0.00000   0.00000   0.00000  -0.00420
  84  H 5   s       -0.14801   0.00000   0.00000   0.00000   0.00000   0.06014
  85  H 5   s       -0.16923   0.00000   0.00000   0.00000   0.00000   0.73115
  86  C 6   s        0.00001   0.00000   0.00000   0.00000   0.00000   0.03924
  87  C 6   s       -0.00004   0.00000   0.00000   0.00000   0.00000  -0.06790
  88  C 6   px      -0.26836   0.00000   0.00000   0.00000   0.00000   0.00000
  89  C 6   py       0.00000   0.00436  -0.33980  -0.00530   0.36467   0.00000
  90  C 6   pz      -0.00042   0.00000   0.00000   0.00000   0.00000   0.12644
  91  C 6   s        0.00005   0.00000   0.00000   0.00000   0.00000  -0.51194
  92  C 6   px      -0.10524   0.00000   0.00000   0.00000   0.00000   0.00000
  93  C 6   py       0.00000   0.00313  -0.24394  -0.00704   0.48488   0.00000
  94  C 6   pz      -0.00007   0.00000   0.00000   0.00000   0.00000   0.28145
  95  C 6   dxx     -0.00003   0.00000   0.00000   0.00000   0.00000  -0.01220
  96  C 6   dxy      0.00000  -0.01882  -0.00024  -0.03001  -0.00044   0.00000
  97  C 6   dyy      0.00000   0.00000   0.00000   0.00000   0.00000   0.00012
  98  C 6   dxz     -0.01157   0.00000   0.00000   0.00000   0.00000   0.00000
  99  C 6   dyz      0.00000   0.00006  -0.00492   0.00016  -0.01091   0.00000
 100  C 6   dzz      0.00004   0.00000   0.00000   0.00000   0.00000   0.01976
 101  H 6   s        0.00032   0.00000   0.00000   0.00000   0.00000   0.06014
 102  H 6   s        0.00037   0.00000   0.00000   0.00000   0.00000   0.73125
                        25        26
 eigenvalues:          0.145     0.145
   1  C 1   s       -0.00015  -0.03867
   2  C 1   s        0.00015   0.03815
   3  C 1   px       0.02648  -0.00010
   4  C 1   py       0.00000   0.00000
   5  C 1   pz       0.00096   0.24958
   6  C 1   s        0.00370   0.96543
   7  C 1   px      -0.21492   0.00082
   8  C 1   py       0.00000   0.00000
   9  C 1   pz       0.00231   0.60254
  10  C 1   dxx      0.00004   0.00924
  11  C 1   dxy      0.00000   0.00000
  12  C 1   dyy     -0.00001  -0.00362
  13  C 1   dxz      0.01232  -0.00005
  14  C 1   dyz      0.00000   0.00000
  15  C 1   dzz     -0.00004  -0.00929
  16  H 1   s       -0.00017  -0.04529
  17  H 1   s       -0.00470  -1.22615
  18  C 2   s       -0.03358  -0.01922
  19  C 2   s        0.03316   0.01903
  20  C 2   px       0.19414   0.09589
  21  C 2   py       0.00000   0.00000
  22  C 2   pz       0.09694   0.08183
  23  C 2   s        0.83782   0.47913
  24  C 2   px       0.39974   0.35297
  25  C 2   py       0.00000   0.00000
  26  C 2   pz       0.35417  -0.01151
  27  C 2   dxx      0.00053  -0.01034
  28  C 2   dxy      0.00000   0.00000
  29  C 2   dyy     -0.00314  -0.00179
  30  C 2   dxz     -0.01112   0.00074
  31  C 2   dyz      0.00000   0.00000
  32  C 2   dzz     -0.00060   0.01030
  33  H 2   s       -0.03935  -0.02251
  34  H 2   s       -1.06449  -0.60948
  35  C 3   s       -0.03343   0.01948
  36  C 3   s        0.03302  -0.01927
  37  C 3   px       0.19340  -0.09737
  38  C 3   py       0.00000   0.00000
  39  C 3   pz      -0.09631   0.08257
  40  C 3   s        0.83417  -0.48548
  41  C 3   px       0.39706  -0.35600
  42  C 3   py       0.00000   0.00000
  43  C 3   pz      -0.35425  -0.00882
  44  C 3   dxx      0.00061   0.01033
  45  C 3   dxy      0.00000   0.00000
  46  C 3   dyy     -0.00312   0.00182
  47  C 3   dxz      0.01112   0.00066
  48  C 3   dyz      0.00000   0.00000
  49  C 3   dzz     -0.00067  -0.01030
  50  H 3   s       -0.03918   0.02281
  51  H 3   s       -1.05984   0.61755
  52  C 4   s        0.03343  -0.01948
  53  C 4   s       -0.03302   0.01928
  54  C 4   px       0.19340  -0.09737
  55  C 4   py       0.00000   0.00000
  56  C 4   pz      -0.09631   0.08257
  57  C 4   s       -0.83412   0.48554
  58  C 4   px       0.39703  -0.35602
  59  C 4   py       0.00000   0.00000
  60  C 4   pz      -0.35424  -0.00880
  61  C 4   dxx     -0.00061  -0.01033
  62  C 4   dxy      0.00000   0.00000
  63  C 4   dyy      0.00312  -0.00182
  64  C 4   dxz     -0.01112  -0.00066
  65  C 4   dyz      0.00000   0.00000
  66  C 4   dzz      0.00067   0.01030
  67  H 4   s        0.03918  -0.02281
  68  H 4   s        1.05979  -0.61762
  69  C 5   s        0.03358   0.01922
  70  C 5   s       -0.03317  -0.01902
  71  C 5   px       0.19414   0.09588
  72  C 5   py       0.00000   0.00000
  73  C 5   pz       0.09694   0.08183
  74  C 5   s       -0.83786  -0.47908
  75  C 5   px       0.39977   0.35295
  76  C 5   py       0.00000   0.00000
  77  C 5   pz       0.35417  -0.01154
  78  C 5   dxx     -0.00053   0.01034
  79  C 5   dxy      0.00000   0.00000
  80  C 5   dyy      0.00314   0.00179
  81  C 5   dxz      0.01112  -0.00074
  82  C 5   dyz      0.00000   0.00000
  83  C 5   dzz      0.00060  -0.01030
  84  H 5   s        0.03935   0.02250
  85  H 5   s        1.06454   0.60942
  86  C 6   s        0.00015   0.03867
  87  C 6   s       -0.00015  -0.03816
  88  C 6   px       0.02648  -0.00010
  89  C 6   py       0.00000   0.00000
  90  C 6   pz       0.00096   0.24958
  91  C 6   s       -0.00369  -0.96547
  92  C 6   px      -0.21493   0.00082
  93  C 6   py       0.00000   0.00000
  94  C 6   pz       0.00231   0.60256
  95  C 6   dxx     -0.00004  -0.00924
  96  C 6   dxy      0.00000   0.00000
  97  C 6   dyy      0.00001   0.00362
  98  C 6   dxz     -0.01232   0.00005
  99  C 6   dyz      0.00000   0.00000
 100  C 6   dzz      0.00004   0.00929
 101  H 6   s        0.00017   0.04529
 102  H 6   s        0.00470   1.22618
 
          Ground-State Mulliken Net Atomic Charges

     Atom                 Charge (a.u.)
  ----------------------------------------
      1 C                    -0.128590
      2 H                     0.128549
      3 C                    -0.128551
      4 H                     0.128584
      5 C                    -0.128563
      6 H                     0.128586
      7 C                    -0.128554
      8 H                     0.128584
      9 C                    -0.128569
     10 H                     0.128586
     11 C                    -0.128614
     12 H                     0.128553
  ----------------------------------------
  Sum of atomic charges =     0.000000

 -----------------------------------------------------------------
                    Cartesian Multipole Moments
 -----------------------------------------------------------------
    Charge (ESU x 10^10)
                 0.0000
    Dipole Moment (Debye)
         X       0.0000      Y       0.0000      Z       0.0002
       Tot       0.0002
    Quadrupole Moments (Debye-Ang)
        XX     -31.4005     XY       0.0000     YY     -38.6012
        XZ       0.0000     YZ       0.0000     ZZ     -31.4032
    Octapole Moments (Debye-Ang^2)
       XXX       0.0000    XXY       0.0000    XYY       0.0000
       YYY       0.0000    XXZ      43.8512    XYZ       0.0000
       YYZ      53.9070    XZZ       0.0000    YZZ       0.0000
       ZZZ     131.5639
    Hexadecapole Moments (Debye-Ang^3)
      XXXX    -270.1650   XXXY       0.0000   XXYY     -60.3723
      XYYY       0.0000   YYYY     -40.0525   XXXZ       0.0000
      XXYZ       0.0000   XYYZ       0.0000   YYYZ       0.0000
      XXZZ    -151.2832   XYZZ       0.0000   YYZZ    -135.6509
      XZZZ      -0.0001   YZZZ       0.0000   ZZZZ    -637.6062
 -----------------------------------------------------------------
Archival summary:
1\1\node09\SP\ProcedureUnspecified\6-31G*\C6H6\rkanters\2009Tue72009\0\\#,ProcedureUnspecified,6-31G*,\\0,1\C\H,1,1.08707\C,1,1.39663,2,119.997\H,3,1.08703,1,119.994,2,0,0\C,3,1.39653,1,119.997,2,180,0\H,5,1.08703,3,120.009,1,180,0\C,1,1.39663,2,119.997,3,180,0\H,7,1.08703,1,119.994,2,0,0\C,7,1.39653,1,119.997,2,180,0\H,9,1.08703,7,120.009,1,-180,0\C,5,1.39664,3,119.997,1,0,0\H,11,1.08707,5,119.997,3,180,0\\\@

 Total job time:  12.16s(wall), 19.13s(cpu) 
 Tue Apr  7 07:48:24 2009

        *************************************************************
        *                                                           *
        *  Thank you very much for using Q-Chem.  Have a nice day.  *
        *                                                           *
        *************************************************************


0 sent ACK to 0 
now end server 0 ... 
