Process 0 of 1 is on node10 - thread support 1
initial socket setup ...start
initial socket setup ...done 
now start server 0 ... 
                  Welcome to Q-Chem
     A Quantum Leap Into The Future Of Chemistry

 Y. Shao, L. Fusti-Molnar, Y. Jung, J. Kussmann, C. Ochsenfeld,
 S. T. Brown, A. T. B. Gilbert, L. V. Slipchenko,S. V. Levchenko,
 D. P. O'Neill, R. A. DiStasio Jr., R. C. Lochan, T. Wang,
 G. J. O. Beran, N. A. Besley, J. M. Herbert, C. Y. Lin,
 T. Van Voorhis, S. H. Chien, A. Sodt, R. P. Steele, 
 V. A. Rassolov, P. E. Maslen, P. P. Korambath, R. D. Adamson,
 B. Austin, J. Baker, E. F. C. Byrd, H. Dachsel, R. J. Doerksen,
 A. Dreuw, B. D. Dunietz, A. D. Dutoi, T. R. Furlani,
 S. R. Gwaltney, A. Heyden, S. Hirata, C.-P. Hsu, G. Kedziora,
 R. Z. Khaliullin, P. Klunzinger, A. M. Lee, M. S. Lee, W. Liang,
 I. Lotan, N. Nair, B. Peters, E. I. Proynov, P. A. Pieniazek, 
 Y. M. Rhee, J. Ritchie, E. Rosta, C. D. Sherrill, 
 A. C. Simmonett, J. E. Subotnik, H. L. Woodcock III,
 W. Zhang, A. T. Bell, A. K. Chakraborty, D. M. Chipman,
 F. J. Keil, A. Warshel, W. J. Hehre, H. F. Schaefer III,
 J. Kong, A. I. Krylov, P. M. W. Gill, M. Head-Gordon,
 Q-Chem, Version 3.1, Q-Chem, Inc., Pittsburgh, PA (2007).

 Additional authors for Version 3.1: 
 Z. Gan, Y. Zhao, N. E. Schultz, D. Truhlar, E. Epifanovsky and M. Oana.

 Additional authors for Version 3.2: 
 R. Baer, B. R. Brooks, D. Casanova, J.-D. Chai, C.-L. Cheng, 
 C. Cramer, D. Crittenden, A. Ghysels, G. Hawkins, E. G. Hohenstein, 
 C. Kelley, W. Kurlancheek, D. Liotard, E. Livshits, P. Manohar, 
 A. Marenich, D. Neuhauser, R. Olson, M. A. Rohrdanz, K. S. Thanthiriwatte, 
 A. J. W. Thom, V. Vanovschi, C. F. Williams, Q. Wu and Z.-Q. You. 


 Intel X86 EM64T Linux Version

 Q-chem begins on Thu Aug 19 14:36:39 2010  

 Parallel job on  1  processors
Processing $rem in /usr/local/qchem3201/config/preferences.

theFileMan(): MAXOPENFILES=974 MAX_SUB_FILE_NUM=16
Maximum size of a physical file is 2.0 GB, maximum size of a tmp-file is 32.0 GB


--------------------------------------------------------------
User input:
--------------------------------------------------------------
$comment
  benzene RHF/6-31G*
$end

$molecule
0 1
 H   0.000000000   0.000000000  -0.019769085
 C   0.000000000   0.000000000   1.066960921
 C   0.000000000  -0.000000000   3.856612746
 C   0.000000000  -1.207954674   1.764373877
 C   0.000000000   1.207954674   1.764373877
 C   0.000000000   1.207954674   3.159199790
 C   0.000000000  -1.207954674   3.159199790
 H   0.000000000  -2.149090467   1.221008874
 H   0.000000000   2.149090467   1.221008874
 H   0.000000000   2.149090467   3.702564793
 H   0.000000000  -2.149090467   3.702564793
 H   0.000000000  -0.000000000   4.943342752
$end

$rem
  jobtype             OPT
  exchange            HF
  basis               6-31G*
  unrestricted        FALSE
  print_general_basis TRUE
  print_orbitals      TRUE
$end

--------------------------------------------------------------
 Writing REM_CC_EA            0
 ----------------------------------------------------
       Standard Nuclear Orientation (Angstroms)
    I     Atom         X            Y            Z
 ----------------------------------------------------
    1      H       2.481556     0.000000     0.000000
    2      C       1.394826     0.000000     0.000000
    3      C      -1.394826     0.000000     0.000000
    4      C       0.697413     1.207955     0.000000
    5      C       0.697413    -1.207955     0.000000
    6      C      -0.697413    -1.207955     0.000000
    7      C      -0.697413     1.207955     0.000000
    8      H       1.240778     2.149090     0.000000
    9      H       1.240778    -2.149090     0.000000
   10      H      -1.240778    -2.149090     0.000000
   11      H      -1.240778     2.149090     0.000000
   12      H      -2.481556     0.000000     0.000000
 ----------------------------------------------------
 Molecular Point Group                 D6h   NOp = 24
 Largest Abelian Subgroup              D2h   NOp =  8
 Nuclear Repulsion Energy =   203.4161024897 hartrees
 There are       21 alpha and       21 beta electrons
 Requested basis set is 6-31G(d)
Basis set in general basis input format:
-----------------------------------------------------------------------
$basis
H    0
S    3    1.000000
   1.87311370E+01    3.34946000E-02 
   2.82539370E+00    2.34726950E-01 
   6.40121700E-01    8.13757330E-01 
S    1    1.000000
   1.61277800E-01    1.00000000E+00 
****
C    0
S    6    1.000000
   3.04752490E+03    1.83470000E-03 
   4.57369510E+02    1.40373000E-02 
   1.03948690E+02    6.88426000E-02 
   2.92101550E+01    2.32184400E-01 
   9.28666300E+00    4.67941300E-01 
   3.16392700E+00    3.62312000E-01 
SP   3    1.000000
   7.86827240E+00   -1.19332400E-01   6.89991000E-02 
   1.88128850E+00   -1.60854200E-01   3.16424000E-01 
   5.44249300E-01    1.14345640E+00   7.44308300E-01 
SP   1    1.000000
   1.68714400E-01    1.00000000E+00   1.00000000E+00 
D    1    1.000000
   8.00000000E-01    1.00000000E+00 
****
C    0
S    6    1.000000
   3.04752490E+03    1.83470000E-03 
   4.57369510E+02    1.40373000E-02 
   1.03948690E+02    6.88426000E-02 
   2.92101550E+01    2.32184400E-01 
   9.28666300E+00    4.67941300E-01 
   3.16392700E+00    3.62312000E-01 
SP   3    1.000000
   7.86827240E+00   -1.19332400E-01   6.89991000E-02 
   1.88128850E+00   -1.60854200E-01   3.16424000E-01 
   5.44249300E-01    1.14345640E+00   7.44308300E-01 
SP   1    1.000000
   1.68714400E-01    1.00000000E+00   1.00000000E+00 
D    1    1.000000
   8.00000000E-01    1.00000000E+00 
****
C    0
S    6    1.000000
   3.04752490E+03    1.83470000E-03 
   4.57369510E+02    1.40373000E-02 
   1.03948690E+02    6.88426000E-02 
   2.92101550E+01    2.32184400E-01 
   9.28666300E+00    4.67941300E-01 
   3.16392700E+00    3.62312000E-01 
SP   3    1.000000
   7.86827240E+00   -1.19332400E-01   6.89991000E-02 
   1.88128850E+00   -1.60854200E-01   3.16424000E-01 
   5.44249300E-01    1.14345640E+00   7.44308300E-01 
SP   1    1.000000
   1.68714400E-01    1.00000000E+00   1.00000000E+00 
D    1    1.000000
   8.00000000E-01    1.00000000E+00 
****
C    0
S    6    1.000000
   3.04752490E+03    1.83470000E-03 
   4.57369510E+02    1.40373000E-02 
   1.03948690E+02    6.88426000E-02 
   2.92101550E+01    2.32184400E-01 
   9.28666300E+00    4.67941300E-01 
   3.16392700E+00    3.62312000E-01 
SP   3    1.000000
   7.86827240E+00   -1.19332400E-01   6.89991000E-02 
   1.88128850E+00   -1.60854200E-01   3.16424000E-01 
   5.44249300E-01    1.14345640E+00   7.44308300E-01 
SP   1    1.000000
   1.68714400E-01    1.00000000E+00   1.00000000E+00 
D    1    1.000000
   8.00000000E-01    1.00000000E+00 
****
C    0
S    6    1.000000
   3.04752490E+03    1.83470000E-03 
   4.57369510E+02    1.40373000E-02 
   1.03948690E+02    6.88426000E-02 
   2.92101550E+01    2.32184400E-01 
   9.28666300E+00    4.67941300E-01 
   3.16392700E+00    3.62312000E-01 
SP   3    1.000000
   7.86827240E+00   -1.19332400E-01   6.89991000E-02 
   1.88128850E+00   -1.60854200E-01   3.16424000E-01 
   5.44249300E-01    1.14345640E+00   7.44308300E-01 
SP   1    1.000000
   1.68714400E-01    1.00000000E+00   1.00000000E+00 
D    1    1.000000
   8.00000000E-01    1.00000000E+00 
****
C    0
S    6    1.000000
   3.04752490E+03    1.83470000E-03 
   4.57369510E+02    1.40373000E-02 
   1.03948690E+02    6.88426000E-02 
   2.92101550E+01    2.32184400E-01 
   9.28666300E+00    4.67941300E-01 
   3.16392700E+00    3.62312000E-01 
SP   3    1.000000
   7.86827240E+00   -1.19332400E-01   6.89991000E-02 
   1.88128850E+00   -1.60854200E-01   3.16424000E-01 
   5.44249300E-01    1.14345640E+00   7.44308300E-01 
SP   1    1.000000
   1.68714400E-01    1.00000000E+00   1.00000000E+00 
D    1    1.000000
   8.00000000E-01    1.00000000E+00 
****
H    0
S    3    1.000000
   1.87311370E+01    3.34946000E-02 
   2.82539370E+00    2.34726950E-01 
   6.40121700E-01    8.13757330E-01 
S    1    1.000000
   1.61277800E-01    1.00000000E+00 
****
H    0
S    3    1.000000
   1.87311370E+01    3.34946000E-02 
   2.82539370E+00    2.34726950E-01 
   6.40121700E-01    8.13757330E-01 
S    1    1.000000
   1.61277800E-01    1.00000000E+00 
****
H    0
S    3    1.000000
   1.87311370E+01    3.34946000E-02 
   2.82539370E+00    2.34726950E-01 
   6.40121700E-01    8.13757330E-01 
S    1    1.000000
   1.61277800E-01    1.00000000E+00 
****
H    0
S    3    1.000000
   1.87311370E+01    3.34946000E-02 
   2.82539370E+00    2.34726950E-01 
   6.40121700E-01    8.13757330E-01 
S    1    1.000000
   1.61277800E-01    1.00000000E+00 
****
H    0
S    3    1.000000
   1.87311370E+01    3.34946000E-02 
   2.82539370E+00    2.34726950E-01 
   6.40121700E-01    8.13757330E-01 
S    1    1.000000
   1.61277800E-01    1.00000000E+00 
****
$end
-----------------------------------------------------------------------
 There are 36 shells and 102 basis functions

Total QAlloc Memory Limit   2000 MB
Mega-Array Size        61 MB
MEM_STATIC part        62 MB
 A cutoff of  1.0D-11 yielded    648 shell pairs
 There are   5397 function pairs
Evaluating contribution to one-electron hamiltonian from nuclear
 Smallest overlap matrix eigenvalue = 5.15E-04
 Multipole matrices computed through 2nd order

  Scale SEOQF with 1.000000e-01/1.000000e-01/1.000000e+00

 Standard Electronic Orientation quadrupole field applied
 Nucleus-field energy     =     0.0000000057 hartrees
 Guess from superposition of atomic densities
 Warning:  Energy on first SCF cycle will be non-variational
 A restricted Hartree-Fock SCF calculation will be
 performed using Pulay DIIS extrapolation
 SCF converges when DIIS error is below 1.0E-08
 ---------------------------------------
  Cycle       Energy         DIIS Error
 ---------------------------------------
    1    -233.0738793681      8.41E-02
    2    -230.6400441930      5.56E-03
    3    -230.6978597342      1.43E-03
    4    -230.7019005521      4.14E-04
    5    -230.7021266362      4.36E-05
    6    -230.7021313867      6.26E-06
    7    -230.7021314828      1.19E-06
    8    -230.7021314864      9.69E-08
    9    -230.7021314864      1.19E-08
   10    -230.7021314864      1.43E-09 Convergence criterion met
 ---------------------------------------
 SCF time:  CPU 9.96 s  wall 1.59 s
 Analysis of SCF Wavefunction
 
 --------------------------------------------------------------
             Orbital Energies (a.u.) and Symmetries
 --------------------------------------------------------------
 
 Alpha MOs, Restricted
 -- Occupied --                  
-11.234 -11.233 -11.233 -11.232 -11.232 -11.231  -1.143  -1.008
  1 A1g   1 E1u   1 E1u   1 E2g   1 E2g   1 B1u   2 A1g   2 E1u                
 -1.008  -0.817  -0.817  -0.702  -0.638  -0.611  -0.581  -0.581
  2 E1u   2 E2g   2 E2g   3 A1g   2 B1u   1 B2u   3 E1u   3 E1u                
 -0.495  -0.488  -0.488  -0.329  -0.329
  1 A2u   3 E2g   3 E2g   1 E1g   1 E1g                                        
 -- Virtual --                   
  0.147   0.147   0.233   0.292   0.292   0.331   0.331   0.335
  1 E2u   1 E2u   4 A1g   4 E1u   4 E1u   4 E2g   4 E2g   3 B1u                
  0.367   0.471   0.471   0.497   0.497   0.660   0.738   0.756
  1 B2g   5 E2g   5 E2g   5 E1u   5 E1u   2 B2u   5 A1g   2 A2u                
  0.778   0.781   0.788   0.832   0.832   0.844   0.844   0.848
  1 A2g   4 B1u   6 A1g   2 E1g   2 E1g   6 E1u   6 E1u   6 E2g                
  0.848   0.914   0.914   0.995   1.111   1.111   1.118   1.118
  6 E2g   2 E2u   2 E2u   2 B2g   7 E2g   7 E2g   7 E1u   7 E1u                
  1.123   1.187   1.187   1.202   1.246   1.303   1.303   1.388
  5 B1u   8 E1u   8 E1u   7 A1g   2 A2g   8 E2g   8 E2g   9 E1u                
  1.388   1.460   1.518   1.662   1.696   1.696   1.767   1.767
  9 E1u   6 B1u   1 B1g   3 A2u   9 E2g   9 E2g   3 E2u   3 E2u                
  1.796   1.796   2.048   2.092   2.160   2.169   2.304   2.304
  3 E1g   3 E1g   8 A1g   3 B2u   7 B1u   9 A1g  10 E1u  10 E1u                
  2.395   2.395   2.468   2.468   2.474   2.474   2.638   2.638
 10 E2g  10 E2g   4 E2u   4 E2u  11 E1u  11 E1u   4 E1g   4 E1g                
  2.648   2.880   2.880   3.003   3.072   3.072   3.084   3.084
  3 B2g  11 E2g  11 E2g   1 A1u  12 E2g  12 E2g  12 E1u  12 E1u                
  3.088   3.394   3.792   4.513   4.543   4.543   4.755   4.755
  8 B1u   3 A2g   9 B1u  10 A1g  13 E1u  13 E1u  13 E2g  13 E2g                
  5.096
 10 B1u                                                                        
 
 Beta MOs, Restricted
 -- Occupied --                  
-11.234 -11.233 -11.233 -11.232 -11.232 -11.231  -1.143  -1.008
  1 A1g   1 E1u   1 E1u   1 E2g   1 E2g   1 B1u   2 A1g   2 E1u                
 -1.008  -0.817  -0.817  -0.702  -0.638  -0.611  -0.581  -0.581
  2 E1u   2 E2g   2 E2g   3 A1g   2 B1u   1 B2u   3 E1u   3 E1u                
 -0.495  -0.488  -0.488  -0.329  -0.329
  1 A2u   3 E2g   3 E2g   1 E1g   1 E1g                                        
 -- Virtual --                   
  0.147   0.147   0.233   0.292   0.292   0.331   0.331   0.335
  1 E2u   1 E2u   4 A1g   4 E1u   4 E1u   4 E2g   4 E2g   3 B1u                
  0.367   0.471   0.471   0.497   0.497   0.660   0.738   0.756
  1 B2g   5 E2g   5 E2g   5 E1u   5 E1u   2 B2u   5 A1g   2 A2u                
  0.778   0.781   0.788   0.832   0.832   0.844   0.844   0.848
  1 A2g   4 B1u   6 A1g   2 E1g   2 E1g   6 E1u   6 E1u   6 E2g                
  0.848   0.914   0.914   0.995   1.111   1.111   1.118   1.118
  6 E2g   2 E2u   2 E2u   2 B2g   7 E2g   7 E2g   7 E1u   7 E1u                
  1.123   1.187   1.187   1.202   1.246   1.303   1.303   1.388
  5 B1u   8 E1u   8 E1u   7 A1g   2 A2g   8 E2g   8 E2g   9 E1u                
  1.388   1.460   1.518   1.662   1.696   1.696   1.767   1.767
  9 E1u   6 B1u   1 B1g   3 A2u   9 E2g   9 E2g   3 E2u   3 E2u                
  1.796   1.796   2.048   2.092   2.160   2.169   2.304   2.304
  3 E1g   3 E1g   8 A1g   3 B2u   7 B1u   9 A1g  10 E1u  10 E1u                
  2.395   2.395   2.468   2.468   2.474   2.474   2.638   2.638
 10 E2g  10 E2g   4 E2u   4 E2u  11 E1u  11 E1u   4 E1g   4 E1g                
  2.648   2.880   2.880   3.003   3.072   3.072   3.084   3.084
  3 B2g  11 E2g  11 E2g   1 A1u  12 E2g  12 E2g  12 E1u  12 E1u                
  3.088   3.394   3.792   4.513   4.543   4.543   4.755   4.755
  8 B1u   3 A2g   9 B1u  10 A1g  13 E1u  13 E1u  13 E2g  13 E2g                
  5.096
 10 B1u                                                                        
 --------------------------------------------------------------
 

                        RESTRICTED (RHF) MOLECULAR ORBITAL COEFFICIENTS
                         1         2         3         4         5         6
 eigenvalues:        -11.234   -11.233   -11.233   -11.232   -11.232   -11.231
   1  H 1   s       -0.00011  -0.00013   0.00000  -0.00008   0.00000   0.00014
   2  H 1   s        0.00083   0.00091   0.00000   0.00084   0.00000   0.00020
   3  C 1   s        0.40626   0.57470   0.00000   0.57499   0.00000  -0.40675
   4  C 1   s        0.01105   0.01597   0.00000   0.01609   0.00000  -0.01165
   5  C 1   px       0.00004  -0.00009   0.00000  -0.00020   0.00000   0.00021
   6  C 1   py       0.00000   0.00000   0.00014   0.00000   0.00012   0.00000
   7  C 1   pz       0.00000   0.00000   0.00000   0.00000   0.00000   0.00000
   8  C 1   s       -0.00219  -0.00496   0.00000  -0.00971   0.00000   0.01514
   9  C 1   px      -0.00032   0.00023   0.00000   0.00166   0.00000  -0.00546
  10  C 1   py       0.00000   0.00000  -0.00123   0.00000  -0.00122   0.00000
  11  C 1   pz       0.00000   0.00000   0.00000   0.00000   0.00000   0.00000
  12  C 1   dxx     -0.00090  -0.00124   0.00000  -0.00092   0.00000   0.00040
  13  C 1   dxy      0.00000   0.00000  -0.00003   0.00000  -0.00014   0.00000
  14  C 1   dyy     -0.00095  -0.00119   0.00000  -0.00061   0.00000   0.00012
  15  C 1   dxz      0.00000   0.00000   0.00000   0.00000   0.00000   0.00000
  16  C 1   dyz      0.00000   0.00000   0.00000   0.00000   0.00000   0.00000
  17  C 1   dzz     -0.00108  -0.00140   0.00000  -0.00132   0.00000   0.00078
  18  C 2   s        0.40626  -0.57470   0.00000   0.57499   0.00000   0.40675
  19  C 2   s        0.01105  -0.01597   0.00000   0.01609   0.00000   0.01165
  20  C 2   px      -0.00004  -0.00009   0.00000   0.00020   0.00000   0.00021
  21  C 2   py       0.00000   0.00000   0.00014   0.00000  -0.00012   0.00000
  22  C 2   pz       0.00000   0.00000   0.00000   0.00000   0.00000   0.00000
  23  C 2   s       -0.00219   0.00496   0.00000  -0.00971   0.00000  -0.01514
  24  C 2   px       0.00032   0.00023   0.00000  -0.00166   0.00000  -0.00546
  25  C 2   py       0.00000   0.00000  -0.00123   0.00000   0.00122   0.00000
  26  C 2   pz       0.00000   0.00000   0.00000   0.00000   0.00000   0.00000
  27  C 2   dxx     -0.00090   0.00124   0.00000  -0.00092   0.00000  -0.00040
  28  C 2   dxy      0.00000   0.00000   0.00003   0.00000  -0.00014   0.00000
  29  C 2   dyy     -0.00095   0.00119   0.00000  -0.00061   0.00000  -0.00012
  30  C 2   dxz      0.00000   0.00000   0.00000   0.00000   0.00000   0.00000
  31  C 2   dyz      0.00000   0.00000   0.00000   0.00000   0.00000   0.00000
  32  C 2   dzz     -0.00108   0.00140   0.00000  -0.00132   0.00000  -0.00078
  33  C 3   s        0.40626   0.28735  -0.49770  -0.28749  -0.49796   0.40675
  34  C 3   s        0.01105   0.00798  -0.01383  -0.00804  -0.01393   0.01165
  35  C 3   px       0.00002  -0.00013  -0.00002  -0.00004   0.00014  -0.00011
  36  C 3   py       0.00003   0.00002   0.00010   0.00014   0.00012  -0.00019
  37  C 3   pz       0.00000   0.00000   0.00000   0.00000   0.00000   0.00000
  38  C 3   s       -0.00219  -0.00248   0.00429   0.00486   0.00841  -0.01514
  39  C 3   px      -0.00016   0.00098   0.00043   0.00050  -0.00125   0.00273
  40  C 3   py      -0.00028  -0.00043  -0.00048  -0.00125  -0.00094   0.00473
  41  C 3   pz       0.00000   0.00000   0.00000   0.00000   0.00000   0.00000
  42  C 3   dxx     -0.00094  -0.00058   0.00105   0.00043   0.00054  -0.00019
  43  C 3   dxy      0.00002   0.00000   0.00003   0.00014   0.00010  -0.00014
  44  C 3   dyy     -0.00091  -0.00063   0.00105   0.00033   0.00078  -0.00033
  45  C 3   dxz      0.00000   0.00000   0.00000   0.00000   0.00000   0.00000
  46  C 3   dyz      0.00000   0.00000   0.00000   0.00000   0.00000   0.00000
  47  C 3   dzz     -0.00108  -0.00070   0.00122   0.00066   0.00114  -0.00078
  48  C 4   s        0.40626   0.28735   0.49770  -0.28749   0.49796   0.40675
  49  C 4   s        0.01105   0.00798   0.01383  -0.00804   0.01393   0.01165
  50  C 4   px       0.00002  -0.00013   0.00002  -0.00004  -0.00014  -0.00011
  51  C 4   py      -0.00003  -0.00002   0.00010  -0.00014   0.00012   0.00019
  52  C 4   pz       0.00000   0.00000   0.00000   0.00000   0.00000   0.00000
  53  C 4   s       -0.00219  -0.00248  -0.00429   0.00486  -0.00841  -0.01514
  54  C 4   px      -0.00016   0.00098  -0.00043   0.00050   0.00125   0.00273
  55  C 4   py       0.00028   0.00043  -0.00048   0.00125  -0.00094  -0.00473
  56  C 4   pz       0.00000   0.00000   0.00000   0.00000   0.00000   0.00000
  57  C 4   dxx     -0.00094  -0.00058  -0.00105   0.00043  -0.00054  -0.00019
  58  C 4   dxy     -0.00002   0.00000   0.00003  -0.00014   0.00010   0.00014
  59  C 4   dyy     -0.00091  -0.00063  -0.00105   0.00033  -0.00078  -0.00033
  60  C 4   dxz      0.00000   0.00000   0.00000   0.00000   0.00000   0.00000
  61  C 4   dyz      0.00000   0.00000   0.00000   0.00000   0.00000   0.00000
  62  C 4   dzz     -0.00108  -0.00070  -0.00122   0.00066  -0.00114  -0.00078
  63  C 5   s        0.40626  -0.28735   0.49770  -0.28749  -0.49796  -0.40675
  64  C 5   s        0.01105  -0.00798   0.01383  -0.00804  -0.01393  -0.01165
  65  C 5   px      -0.00002  -0.00013  -0.00002   0.00004  -0.00014  -0.00011
  66  C 5   py      -0.00003   0.00002   0.00010  -0.00014  -0.00012  -0.00019
  67  C 5   pz       0.00000   0.00000   0.00000   0.00000   0.00000   0.00000
  68  C 5   s       -0.00219   0.00248  -0.00429   0.00486   0.00841   0.01514
  69  C 5   px       0.00016   0.00098   0.00043  -0.00050   0.00125   0.00273
  70  C 5   py       0.00028  -0.00043  -0.00048   0.00125   0.00094   0.00473
  71  C 5   pz       0.00000   0.00000   0.00000   0.00000   0.00000   0.00000
  72  C 5   dxx     -0.00094   0.00058  -0.00105   0.00043   0.00054   0.00019
  73  C 5   dxy      0.00002   0.00000  -0.00003   0.00014   0.00010   0.00014
  74  C 5   dyy     -0.00091   0.00063  -0.00105   0.00033   0.00078   0.00033
  75  C 5   dxz      0.00000   0.00000   0.00000   0.00000   0.00000   0.00000
  76  C 5   dyz      0.00000   0.00000   0.00000   0.00000   0.00000   0.00000
  77  C 5   dzz     -0.00108   0.00070  -0.00122   0.00066   0.00114   0.00078
  78  C 6   s        0.40626  -0.28735  -0.49770  -0.28749   0.49796  -0.40675
  79  C 6   s        0.01105  -0.00798  -0.01383  -0.00804   0.01393  -0.01165
  80  C 6   px      -0.00002  -0.00013   0.00002   0.00004   0.00014  -0.00011
  81  C 6   py       0.00003  -0.00002   0.00010   0.00014  -0.00012   0.00019
  82  C 6   pz       0.00000   0.00000   0.00000   0.00000   0.00000   0.00000
  83  C 6   s       -0.00219   0.00248   0.00429   0.00486  -0.00841   0.01514
  84  C 6   px       0.00016   0.00098  -0.00043  -0.00050  -0.00125   0.00273
  85  C 6   py      -0.00028   0.00043  -0.00048  -0.00125   0.00094  -0.00473
  86  C 6   pz       0.00000   0.00000   0.00000   0.00000   0.00000   0.00000
  87  C 6   dxx     -0.00094   0.00058   0.00105   0.00043  -0.00054   0.00019
  88  C 6   dxy     -0.00002   0.00000  -0.00003  -0.00014   0.00010  -0.00014
  89  C 6   dyy     -0.00091   0.00063   0.00105   0.00033  -0.00078   0.00033
  90  C 6   dxz      0.00000   0.00000   0.00000   0.00000   0.00000   0.00000
  91  C 6   dyz      0.00000   0.00000   0.00000   0.00000   0.00000   0.00000
  92  C 6   dzz     -0.00108   0.00070   0.00122   0.00066  -0.00114   0.00078
  93  H 2   s       -0.00011  -0.00007   0.00011   0.00004   0.00007  -0.00014
  94  H 2   s        0.00083   0.00046  -0.00079  -0.00042  -0.00073  -0.00020
  95  H 3   s       -0.00011  -0.00007  -0.00011   0.00004  -0.00007  -0.00014
  96  H 3   s        0.00083   0.00046   0.00079  -0.00042   0.00073  -0.00020
  97  H 4   s       -0.00011   0.00007  -0.00011   0.00004   0.00007   0.00014
  98  H 4   s        0.00083  -0.00046   0.00079  -0.00042  -0.00073   0.00020
  99  H 5   s       -0.00011   0.00007   0.00011   0.00004  -0.00007   0.00014
 100  H 5   s        0.00083  -0.00046  -0.00079  -0.00042   0.00073   0.00020
 101  H 6   s       -0.00011   0.00013   0.00000  -0.00008   0.00000  -0.00014
 102  H 6   s        0.00083  -0.00091   0.00000   0.00084   0.00000  -0.00020
                         7         8         9        10        11        12
 eigenvalues:         -1.143    -1.008    -1.008    -0.817    -0.817    -0.702
   1  H 1   s        0.03499   0.07596   0.00000   0.11235   0.00000  -0.11100
   2  H 1   s        0.00371   0.01494   0.00000   0.03511   0.00000  -0.06640
   3  C 1   s       -0.09232  -0.12818   0.00000  -0.10011   0.00000   0.00769
   4  C 1   s        0.17520   0.24720   0.00000   0.19991   0.00000  -0.01339
   5  C 1   px      -0.05952  -0.02744   0.00000   0.06415   0.00000  -0.19368
   6  C 1   py       0.00000   0.00000   0.11481   0.00000   0.20564   0.00000
   7  C 1   pz       0.00000   0.00000   0.00000   0.00000   0.00000   0.00000
   8  C 1   s        0.11183   0.19233   0.00000   0.16846   0.00000  -0.03374
   9  C 1   px      -0.00676   0.00460   0.00000   0.05775   0.00000  -0.07146
  10  C 1   py       0.00000   0.00000   0.01694   0.00000   0.05230   0.00000
  11  C 1   pz       0.00000   0.00000   0.00000   0.00000   0.00000   0.00000
  12  C 1   dxx      0.00553   0.00735   0.00000   0.01076   0.00000  -0.00535
  13  C 1   dxy      0.00000   0.00000  -0.01184   0.00000  -0.01234   0.00000
  14  C 1   dyy      0.00836   0.01013   0.00000   0.00083   0.00000   0.00014
  15  C 1   dxz      0.00000   0.00000   0.00000   0.00000   0.00000   0.00000
  16  C 1   dyz      0.00000   0.00000   0.00000   0.00000   0.00000   0.00000
  17  C 1   dzz     -0.00834  -0.01019   0.00000  -0.00712   0.00000   0.00059
  18  C 2   s       -0.09232   0.12818   0.00000  -0.10011   0.00000   0.00769
  19  C 2   s        0.17520  -0.24720   0.00000   0.19991   0.00000  -0.01339
  20  C 2   px       0.05952  -0.02744   0.00000  -0.06415   0.00000   0.19368
  21  C 2   py       0.00000   0.00000   0.11481   0.00000  -0.20564   0.00000
  22  C 2   pz       0.00000   0.00000   0.00000   0.00000   0.00000   0.00000
  23  C 2   s        0.11183  -0.19233   0.00000   0.16846   0.00000  -0.03374
  24  C 2   px       0.00676   0.00460   0.00000  -0.05775   0.00000   0.07146
  25  C 2   py       0.00000   0.00000   0.01694   0.00000  -0.05230   0.00000
  26  C 2   pz       0.00000   0.00000   0.00000   0.00000   0.00000   0.00000
  27  C 2   dxx      0.00553  -0.00735   0.00000   0.01076   0.00000  -0.00535
  28  C 2   dxy      0.00000   0.00000   0.01184   0.00000  -0.01234   0.00000
  29  C 2   dyy      0.00836  -0.01013   0.00000   0.00083   0.00000   0.00014
  30  C 2   dxz      0.00000   0.00000   0.00000   0.00000   0.00000   0.00000
  31  C 2   dyz      0.00000   0.00000   0.00000   0.00000   0.00000   0.00000
  32  C 2   dzz     -0.00834   0.01019   0.00000  -0.00712   0.00000   0.00059
  33  C 3   s       -0.09232  -0.06409  -0.11101   0.05006  -0.08670   0.00769
  34  C 3   s        0.17520   0.12360   0.21408  -0.09996   0.17313  -0.01339
  35  C 3   px      -0.02976   0.07925  -0.06160   0.13819   0.11682  -0.09684
  36  C 3   py      -0.05154  -0.06160   0.00812  -0.11682  -0.00330  -0.16773
  37  C 3   pz       0.00000   0.00000   0.00000   0.00000   0.00000   0.00000
  38  C 3   s        0.11183   0.09616   0.16656  -0.08423   0.14589  -0.03374
  39  C 3   px      -0.00338   0.01385  -0.00534   0.02479   0.04766  -0.03573
  40  C 3   py      -0.00585  -0.00534   0.00769  -0.04766   0.03024  -0.06189
  41  C 3   pz       0.00000   0.00000   0.00000   0.00000   0.00000   0.00000
  42  C 3   dxx      0.00765  -0.00297   0.01261  -0.00967  -0.00176  -0.00123
  43  C 3   dxy     -0.00142  -0.00582   0.00175  -0.00783   0.00122  -0.00275
  44  C 3   dyy      0.00624   0.01171   0.00253   0.00388   0.01179  -0.00398
  45  C 3   dxz      0.00000   0.00000   0.00000   0.00000   0.00000   0.00000
  46  C 3   dyz      0.00000   0.00000   0.00000   0.00000   0.00000   0.00000
  47  C 3   dzz     -0.00834  -0.00509  -0.00882   0.00356  -0.00617   0.00059
  48  C 4   s       -0.09232  -0.06409   0.11101   0.05006   0.08670   0.00769
  49  C 4   s        0.17520   0.12360  -0.21408  -0.09996  -0.17313  -0.01339
  50  C 4   px      -0.02976   0.07925   0.06160   0.13819  -0.11682  -0.09684
  51  C 4   py       0.05154   0.06160   0.00812   0.11682  -0.00330   0.16773
  52  C 4   pz       0.00000   0.00000   0.00000   0.00000   0.00000   0.00000
  53  C 4   s        0.11183   0.09616  -0.16656  -0.08423  -0.14589  -0.03374
  54  C 4   px      -0.00338   0.01385   0.00534   0.02479  -0.04766  -0.03573
  55  C 4   py       0.00585   0.00534   0.00769   0.04766   0.03024   0.06189
  56  C 4   pz       0.00000   0.00000   0.00000   0.00000   0.00000   0.00000
  57  C 4   dxx      0.00765  -0.00297  -0.01261  -0.00967   0.00176  -0.00123
  58  C 4   dxy      0.00142   0.00582   0.00175   0.00783   0.00122   0.00275
  59  C 4   dyy      0.00624   0.01171  -0.00253   0.00388  -0.01179  -0.00398
  60  C 4   dxz      0.00000   0.00000   0.00000   0.00000   0.00000   0.00000
  61  C 4   dyz      0.00000   0.00000   0.00000   0.00000   0.00000   0.00000
  62  C 4   dzz     -0.00834  -0.00509   0.00882   0.00356   0.00617   0.00059
  63  C 5   s       -0.09232   0.06409   0.11101   0.05006  -0.08670   0.00769
  64  C 5   s        0.17520  -0.12360  -0.21408  -0.09996   0.17313  -0.01339
  65  C 5   px       0.02976   0.07925  -0.06160  -0.13819  -0.11682   0.09684
  66  C 5   py       0.05154  -0.06160   0.00812   0.11682   0.00330   0.16773
  67  C 5   pz       0.00000   0.00000   0.00000   0.00000   0.00000   0.00000
  68  C 5   s        0.11183  -0.09616  -0.16656  -0.08423   0.14589  -0.03374
  69  C 5   px       0.00338   0.01385  -0.00534  -0.02479  -0.04766   0.03573
  70  C 5   py       0.00585  -0.00534   0.00769   0.04766  -0.03024   0.06189
  71  C 5   pz       0.00000   0.00000   0.00000   0.00000   0.00000   0.00000
  72  C 5   dxx      0.00765   0.00297  -0.01261  -0.00967  -0.00176  -0.00123
  73  C 5   dxy     -0.00142   0.00582  -0.00175  -0.00783   0.00122  -0.00275
  74  C 5   dyy      0.00624  -0.01171  -0.00253   0.00388   0.01179  -0.00398
  75  C 5   dxz      0.00000   0.00000   0.00000   0.00000   0.00000   0.00000
  76  C 5   dyz      0.00000   0.00000   0.00000   0.00000   0.00000   0.00000
  77  C 5   dzz     -0.00834   0.00509   0.00882   0.00356  -0.00617   0.00059
  78  C 6   s       -0.09232   0.06409  -0.11101   0.05006   0.08670   0.00769
  79  C 6   s        0.17520  -0.12360   0.21408  -0.09996  -0.17313  -0.01339
  80  C 6   px       0.02976   0.07925   0.06160  -0.13819   0.11682   0.09684
  81  C 6   py      -0.05154   0.06160   0.00812  -0.11682   0.00330  -0.16773
  82  C 6   pz       0.00000   0.00000   0.00000   0.00000   0.00000   0.00000
  83  C 6   s        0.11183  -0.09616   0.16656  -0.08423  -0.14589  -0.03374
  84  C 6   px       0.00338   0.01385   0.00534  -0.02479   0.04766   0.03573
  85  C 6   py      -0.00585   0.00534   0.00769  -0.04766  -0.03024  -0.06189
  86  C 6   pz       0.00000   0.00000   0.00000   0.00000   0.00000   0.00000
  87  C 6   dxx      0.00765   0.00297   0.01261  -0.00967   0.00176  -0.00123
  88  C 6   dxy      0.00142  -0.00582  -0.00175   0.00783   0.00122   0.00275
  89  C 6   dyy      0.00624  -0.01171   0.00253   0.00388  -0.01179  -0.00398
  90  C 6   dxz      0.00000   0.00000   0.00000   0.00000   0.00000   0.00000
  91  C 6   dyz      0.00000   0.00000   0.00000   0.00000   0.00000   0.00000
  92  C 6   dzz     -0.00834   0.00509  -0.00882   0.00356   0.00617   0.00059
  93  H 2   s        0.03499   0.03798   0.06578  -0.05618   0.09730  -0.11100
  94  H 2   s        0.00371   0.00747   0.01294  -0.01755   0.03040  -0.06640
  95  H 3   s        0.03499   0.03798  -0.06578  -0.05618  -0.09730  -0.11100
  96  H 3   s        0.00371   0.00747  -0.01294  -0.01755  -0.03040  -0.06640
  97  H 4   s        0.03499  -0.03798  -0.06578  -0.05618   0.09730  -0.11100
  98  H 4   s        0.00371  -0.00747  -0.01294  -0.01755   0.03040  -0.06640
  99  H 5   s        0.03499  -0.03798   0.06578  -0.05618  -0.09730  -0.11100
 100  H 5   s        0.00371  -0.00747   0.01294  -0.01755  -0.03040  -0.06640
 101  H 6   s        0.03499  -0.07596   0.00000   0.11235   0.00000  -0.11100
 102  H 6   s        0.00371  -0.01494   0.00000   0.03511   0.00000  -0.06640
                        13        14        15        16        17        18
 eigenvalues:         -0.638    -0.611    -0.581    -0.581    -0.495    -0.488
   1  H 1   s        0.13608   0.00000   0.16457   0.00000   0.00000  -0.16291
   2  H 1   s        0.06665   0.00000   0.12748   0.00000   0.00000  -0.14406
   3  C 1   s       -0.05605   0.00000   0.02035   0.00000   0.00000  -0.00463
   4  C 1   s        0.11543   0.00000  -0.04542   0.00000   0.00000   0.01526
   5  C 1   px       0.13136   0.00000   0.29332   0.00000   0.00000  -0.22255
   6  C 1   py       0.00000   0.27207   0.00000  -0.08575   0.00000   0.00000
   7  C 1   pz       0.00000   0.00000   0.00000   0.00000   0.20981   0.00000
   8  C 1   s        0.05808   0.00000  -0.02967   0.00000   0.00000  -0.00538
   9  C 1   px       0.13010   0.00000   0.12979   0.00000   0.00000  -0.12987
  10  C 1   py       0.00000   0.09601   0.00000  -0.02956   0.00000   0.00000
  11  C 1   pz       0.00000   0.00000   0.00000   0.00000   0.13690   0.00000
  12  C 1   dxx      0.01883   0.00000   0.01638   0.00000   0.00000  -0.02681
  13  C 1   dxy      0.00000  -0.00975   0.00000   0.01465   0.00000   0.00000
  14  C 1   dyy     -0.01262   0.00000  -0.00867   0.00000   0.00000   0.01848
  15  C 1   dxz      0.00000   0.00000   0.00000   0.00000  -0.01195   0.00000
  16  C 1   dyz      0.00000   0.00000   0.00000   0.00000   0.00000   0.00000
  17  C 1   dzz     -0.00346   0.00000   0.00007   0.00000   0.00000   0.00088
  18  C 2   s        0.05605   0.00000  -0.02035   0.00000   0.00000  -0.00463
  19  C 2   s       -0.11543   0.00000   0.04542   0.00000   0.00000   0.01526
  20  C 2   px       0.13136   0.00000   0.29332   0.00000   0.00000   0.22255
  21  C 2   py       0.00000   0.27207   0.00000  -0.08575   0.00000   0.00000
  22  C 2   pz       0.00000   0.00000   0.00000   0.00000   0.20981   0.00000
  23  C 2   s       -0.05808   0.00000   0.02967   0.00000   0.00000  -0.00538
  24  C 2   px       0.13010   0.00000   0.12979   0.00000   0.00000   0.12987
  25  C 2   py       0.00000   0.09601   0.00000  -0.02956   0.00000   0.00000
  26  C 2   pz       0.00000   0.00000   0.00000   0.00000   0.13690   0.00000
  27  C 2   dxx     -0.01883   0.00000  -0.01638   0.00000   0.00000  -0.02681
  28  C 2   dxy      0.00000   0.00975   0.00000  -0.01465   0.00000   0.00000
  29  C 2   dyy      0.01262   0.00000   0.00867   0.00000   0.00000   0.01848
  30  C 2   dxz      0.00000   0.00000   0.00000   0.00000   0.01195   0.00000
  31  C 2   dyz      0.00000   0.00000   0.00000   0.00000   0.00000   0.00000
  32  C 2   dzz      0.00346   0.00000  -0.00007   0.00000   0.00000   0.00088
  33  C 3   s        0.05605   0.00000   0.01018   0.01763   0.00000   0.00231
  34  C 3   s       -0.11543   0.00000  -0.02271  -0.03933   0.00000  -0.00763
  35  C 3   px      -0.06568   0.23562   0.00902   0.16414   0.00000   0.24756
  36  C 3   py      -0.11376  -0.13604   0.16414   0.19855   0.00000  -0.01444
  37  C 3   pz       0.00000   0.00000   0.00000   0.00000   0.20981   0.00000
  38  C 3   s       -0.05808   0.00000  -0.01483  -0.02569   0.00000   0.00269
  39  C 3   px      -0.06505   0.08315   0.01028   0.06900   0.00000   0.11649
  40  C 3   py      -0.11267  -0.04801   0.06900   0.08995   0.00000   0.00772
  41  C 3   pz       0.00000   0.00000   0.00000   0.00000   0.13690   0.00000
  42  C 3   dxx      0.00476  -0.00731   0.00831  -0.00758   0.00000  -0.01373
  43  C 3   dxy     -0.01573  -0.00488   0.01261   0.00719   0.00000   0.00456
  44  C 3   dyy     -0.01097   0.00731  -0.00445   0.01426   0.00000   0.01789
  45  C 3   dxz      0.00000   0.00000   0.00000   0.00000  -0.00597   0.00000
  46  C 3   dyz      0.00000   0.00000   0.00000   0.00000  -0.01035   0.00000
  47  C 3   dzz      0.00346   0.00000   0.00004   0.00006   0.00000  -0.00044
  48  C 4   s        0.05605   0.00000   0.01018  -0.01763   0.00000   0.00231
  49  C 4   s       -0.11543   0.00000  -0.02271   0.03933   0.00000  -0.00763
  50  C 4   px      -0.06568  -0.23562   0.00902  -0.16414   0.00000   0.24756
  51  C 4   py       0.11376  -0.13604  -0.16414   0.19855   0.00000   0.01444
  52  C 4   pz       0.00000   0.00000   0.00000   0.00000   0.20981   0.00000
  53  C 4   s       -0.05808   0.00000  -0.01483   0.02569   0.00000   0.00269
  54  C 4   px      -0.06505  -0.08315   0.01028  -0.06900   0.00000   0.11649
  55  C 4   py       0.11267  -0.04801  -0.06900   0.08995   0.00000  -0.00772
  56  C 4   pz       0.00000   0.00000   0.00000   0.00000   0.13690   0.00000
  57  C 4   dxx      0.00476   0.00731   0.00831   0.00758   0.00000  -0.01373
  58  C 4   dxy      0.01573  -0.00488  -0.01261   0.00719   0.00000  -0.00456
  59  C 4   dyy     -0.01097  -0.00731  -0.00445  -0.01426   0.00000   0.01789
  60  C 4   dxz      0.00000   0.00000   0.00000   0.00000  -0.00597   0.00000
  61  C 4   dyz      0.00000   0.00000   0.00000   0.00000   0.01035   0.00000
  62  C 4   dzz      0.00346   0.00000   0.00004  -0.00006   0.00000  -0.00044
  63  C 5   s       -0.05605   0.00000  -0.01018  -0.01763   0.00000   0.00231
  64  C 5   s        0.11543   0.00000   0.02271   0.03933   0.00000  -0.00763
  65  C 5   px      -0.06568   0.23562   0.00902   0.16414   0.00000  -0.24756
  66  C 5   py      -0.11376  -0.13604   0.16414   0.19855   0.00000   0.01444
  67  C 5   pz       0.00000   0.00000   0.00000   0.00000   0.20981   0.00000
  68  C 5   s        0.05808   0.00000   0.01483   0.02569   0.00000   0.00269
  69  C 5   px      -0.06505   0.08315   0.01028   0.06900   0.00000  -0.11649
  70  C 5   py      -0.11267  -0.04801   0.06900   0.08995   0.00000  -0.00772
  71  C 5   pz       0.00000   0.00000   0.00000   0.00000   0.13690   0.00000
  72  C 5   dxx     -0.00476   0.00731  -0.00831   0.00758   0.00000  -0.01373
  73  C 5   dxy      0.01573   0.00488  -0.01261  -0.00719   0.00000   0.00456
  74  C 5   dyy      0.01097  -0.00731   0.00445  -0.01426   0.00000   0.01789
  75  C 5   dxz      0.00000   0.00000   0.00000   0.00000   0.00597   0.00000
  76  C 5   dyz      0.00000   0.00000   0.00000   0.00000   0.01035   0.00000
  77  C 5   dzz     -0.00346   0.00000  -0.00004  -0.00006   0.00000  -0.00044
  78  C 6   s       -0.05605   0.00000  -0.01018   0.01763   0.00000   0.00231
  79  C 6   s        0.11543   0.00000   0.02271  -0.03933   0.00000  -0.00763
  80  C 6   px      -0.06568  -0.23562   0.00902  -0.16414   0.00000  -0.24756
  81  C 6   py       0.11376  -0.13604  -0.16414   0.19855   0.00000  -0.01444
  82  C 6   pz       0.00000   0.00000   0.00000   0.00000   0.20981   0.00000
  83  C 6   s        0.05808   0.00000   0.01483  -0.02569   0.00000   0.00269
  84  C 6   px      -0.06505  -0.08315   0.01028  -0.06900   0.00000  -0.11649
  85  C 6   py       0.11267  -0.04801  -0.06900   0.08995   0.00000   0.00772
  86  C 6   pz       0.00000   0.00000   0.00000   0.00000   0.13690   0.00000
  87  C 6   dxx     -0.00476  -0.00731  -0.00831  -0.00758   0.00000  -0.01373
  88  C 6   dxy     -0.01573   0.00488   0.01261  -0.00719   0.00000  -0.00456
  89  C 6   dyy      0.01097   0.00731   0.00445   0.01426   0.00000   0.01789
  90  C 6   dxz      0.00000   0.00000   0.00000   0.00000   0.00597   0.00000
  91  C 6   dyz      0.00000   0.00000   0.00000   0.00000  -0.01035   0.00000
  92  C 6   dzz     -0.00346   0.00000  -0.00004   0.00006   0.00000  -0.00044
  93  H 2   s       -0.13608   0.00000   0.08229   0.14252   0.00000   0.08145
  94  H 2   s       -0.06665   0.00000   0.06374   0.11040   0.00000   0.07203
  95  H 3   s       -0.13608   0.00000   0.08229  -0.14252   0.00000   0.08145
  96  H 3   s       -0.06665   0.00000   0.06374  -0.11040   0.00000   0.07203
  97  H 4   s        0.13608   0.00000  -0.08229  -0.14252   0.00000   0.08145
  98  H 4   s        0.06665   0.00000  -0.06374  -0.11040   0.00000   0.07203
  99  H 5   s        0.13608   0.00000  -0.08229   0.14252   0.00000   0.08145
 100  H 5   s        0.06665   0.00000  -0.06374   0.11040   0.00000   0.07203
 101  H 6   s       -0.13608   0.00000  -0.16457   0.00000   0.00000  -0.16291
 102  H 6   s       -0.06665   0.00000  -0.12748   0.00000   0.00000  -0.14406
                        19        20        21        22        23        24
 eigenvalues:         -0.488    -0.329    -0.329     0.147     0.147     0.233
   1  H 1   s        0.00000   0.00000   0.00000   0.00000   0.00000   0.03531
   2  H 1   s        0.00000   0.00000   0.00000   0.00000   0.00000   0.77681
   3  C 1   s        0.00000   0.00000   0.00000   0.00000   0.00000   0.03777
   4  C 1   s        0.00000   0.00000   0.00000   0.00000   0.00000  -0.04714
   5  C 1   px       0.00000   0.00000   0.00000   0.00000   0.00000  -0.10826
   6  C 1   py      -0.25589   0.00000   0.00000   0.00000   0.00000   0.00000
   7  C 1   pz       0.00000   0.31419   0.00000   0.31011   0.00000   0.00000
   8  C 1   s        0.00000   0.00000   0.00000   0.00000   0.00000  -0.55305
   9  C 1   px       0.00000   0.00000   0.00000   0.00000   0.00000  -0.30856
  10  C 1   py      -0.11203   0.00000   0.00000   0.00000   0.00000   0.00000
  11  C 1   pz       0.00000   0.26734   0.00000   0.56890   0.00000   0.00000
  12  C 1   dxx      0.00000   0.00000   0.00000   0.00000   0.00000   0.01784
  13  C 1   dxy      0.01563   0.00000   0.00000   0.00000   0.00000   0.00000
  14  C 1   dyy      0.00000   0.00000   0.00000   0.00000   0.00000  -0.01189
  15  C 1   dxz      0.00000  -0.00941   0.00000   0.00971   0.00000   0.00000
  16  C 1   dyz      0.00000   0.00000  -0.02172   0.00000   0.03294   0.00000
  17  C 1   dzz      0.00000   0.00000   0.00000   0.00000   0.00000   0.00035
  18  C 2   s        0.00000   0.00000   0.00000   0.00000   0.00000   0.03777
  19  C 2   s        0.00000   0.00000   0.00000   0.00000   0.00000  -0.04714
  20  C 2   px       0.00000   0.00000   0.00000   0.00000   0.00000   0.10826
  21  C 2   py       0.25589   0.00000   0.00000   0.00000   0.00000   0.00000
  22  C 2   pz       0.00000  -0.31419   0.00000   0.31011   0.00000   0.00000
  23  C 2   s        0.00000   0.00000   0.00000   0.00000   0.00000  -0.55305
  24  C 2   px       0.00000   0.00000   0.00000   0.00000   0.00000   0.30856
  25  C 2   py       0.11203   0.00000   0.00000   0.00000   0.00000   0.00000
  26  C 2   pz       0.00000  -0.26734   0.00000   0.56890   0.00000   0.00000
  27  C 2   dxx      0.00000   0.00000   0.00000   0.00000   0.00000   0.01784
  28  C 2   dxy      0.01563   0.00000   0.00000   0.00000   0.00000   0.00000
  29  C 2   dyy      0.00000   0.00000   0.00000   0.00000   0.00000  -0.01189
  30  C 2   dxz      0.00000  -0.00941   0.00000  -0.00971   0.00000   0.00000
  31  C 2   dyz      0.00000   0.00000  -0.02172   0.00000  -0.03294   0.00000
  32  C 2   dzz      0.00000   0.00000   0.00000   0.00000   0.00000   0.00035
  33  C 3   s        0.00401   0.00000   0.00000   0.00000   0.00000   0.03777
  34  C 3   s       -0.01321   0.00000   0.00000   0.00000   0.00000  -0.04714
  35  C 3   px      -0.01444   0.00000   0.00000   0.00000   0.00000  -0.05413
  36  C 3   py       0.23089   0.00000   0.00000   0.00000   0.00000  -0.09375
  37  C 3   pz       0.00000   0.15710  -0.27210  -0.15506   0.26856   0.00000
  38  C 3   s        0.00466   0.00000   0.00000   0.00000   0.00000  -0.55305
  39  C 3   px       0.00772   0.00000   0.00000   0.00000   0.00000  -0.15428
  40  C 3   py       0.12541   0.00000   0.00000   0.00000   0.00000  -0.26722
  41  C 3   pz       0.00000   0.13367  -0.23152  -0.28445   0.49268   0.00000
  42  C 3   dxx     -0.00034   0.00000   0.00000   0.00000   0.00000  -0.00446
  43  C 3   dxy      0.02352   0.00000   0.00000   0.00000   0.00000   0.01486
  44  C 3   dyy      0.00755   0.00000   0.00000   0.00000   0.00000   0.01041
  45  C 3   dxz      0.00000   0.01394   0.01348   0.02228   0.01847   0.00000
  46  C 3   dyz      0.00000  -0.01348   0.00163  -0.01847  -0.00095   0.00000
  47  C 3   dzz     -0.00076   0.00000   0.00000   0.00000   0.00000   0.00035
  48  C 4   s       -0.00401   0.00000   0.00000   0.00000   0.00000   0.03777
  49  C 4   s        0.01321   0.00000   0.00000   0.00000   0.00000  -0.04714
  50  C 4   px       0.01444   0.00000   0.00000   0.00000   0.00000  -0.05413
  51  C 4   py       0.23089   0.00000   0.00000   0.00000   0.00000   0.09375
  52  C 4   pz       0.00000   0.15710   0.27210  -0.15506  -0.26856   0.00000
  53  C 4   s       -0.00466   0.00000   0.00000   0.00000   0.00000  -0.55305
  54  C 4   px      -0.00772   0.00000   0.00000   0.00000   0.00000  -0.15428
  55  C 4   py       0.12541   0.00000   0.00000   0.00000   0.00000   0.26722
  56  C 4   pz       0.00000   0.13367   0.23152  -0.28445  -0.49268   0.00000
  57  C 4   dxx      0.00034   0.00000   0.00000   0.00000   0.00000  -0.00446
  58  C 4   dxy      0.02352   0.00000   0.00000   0.00000   0.00000  -0.01486
  59  C 4   dyy     -0.00755   0.00000   0.00000   0.00000   0.00000   0.01041
  60  C 4   dxz      0.00000   0.01394  -0.01348   0.02228  -0.01847   0.00000
  61  C 4   dyz      0.00000   0.01348   0.00163   0.01847  -0.00095   0.00000
  62  C 4   dzz      0.00076   0.00000   0.00000   0.00000   0.00000   0.00035
  63  C 5   s        0.00401   0.00000   0.00000   0.00000   0.00000   0.03777
  64  C 5   s       -0.01321   0.00000   0.00000   0.00000   0.00000  -0.04714
  65  C 5   px       0.01444   0.00000   0.00000   0.00000   0.00000   0.05413
  66  C 5   py      -0.23089   0.00000   0.00000   0.00000   0.00000   0.09375
  67  C 5   pz       0.00000  -0.15710   0.27210  -0.15506   0.26856   0.00000
  68  C 5   s        0.00466   0.00000   0.00000   0.00000   0.00000  -0.55305
  69  C 5   px      -0.00772   0.00000   0.00000   0.00000   0.00000   0.15428
  70  C 5   py      -0.12541   0.00000   0.00000   0.00000   0.00000   0.26722
  71  C 5   pz       0.00000  -0.13367   0.23152  -0.28445   0.49268   0.00000
  72  C 5   dxx     -0.00034   0.00000   0.00000   0.00000   0.00000  -0.00446
  73  C 5   dxy      0.02352   0.00000   0.00000   0.00000   0.00000   0.01486
  74  C 5   dyy      0.00755   0.00000   0.00000   0.00000   0.00000   0.01041
  75  C 5   dxz      0.00000   0.01394   0.01348  -0.02228  -0.01847   0.00000
  76  C 5   dyz      0.00000  -0.01348   0.00163   0.01847   0.00095   0.00000
  77  C 5   dzz     -0.00076   0.00000   0.00000   0.00000   0.00000   0.00035
  78  C 6   s       -0.00401   0.00000   0.00000   0.00000   0.00000   0.03777
  79  C 6   s        0.01321   0.00000   0.00000   0.00000   0.00000  -0.04714
  80  C 6   px      -0.01444   0.00000   0.00000   0.00000   0.00000   0.05413
  81  C 6   py      -0.23089   0.00000   0.00000   0.00000   0.00000  -0.09375
  82  C 6   pz       0.00000  -0.15710  -0.27210  -0.15506  -0.26856   0.00000
  83  C 6   s       -0.00466   0.00000   0.00000   0.00000   0.00000  -0.55305
  84  C 6   px       0.00772   0.00000   0.00000   0.00000   0.00000   0.15428
  85  C 6   py      -0.12541   0.00000   0.00000   0.00000   0.00000  -0.26722
  86  C 6   pz       0.00000  -0.13367  -0.23152  -0.28445  -0.49268   0.00000
  87  C 6   dxx      0.00034   0.00000   0.00000   0.00000   0.00000  -0.00446
  88  C 6   dxy      0.02352   0.00000   0.00000   0.00000   0.00000  -0.01486
  89  C 6   dyy     -0.00755   0.00000   0.00000   0.00000   0.00000   0.01041
  90  C 6   dxz      0.00000   0.01394  -0.01348  -0.02228   0.01847   0.00000
  91  C 6   dyz      0.00000   0.01348   0.00163  -0.01847   0.00095   0.00000
  92  C 6   dzz      0.00076   0.00000   0.00000   0.00000   0.00000   0.00035
  93  H 2   s        0.14108   0.00000   0.00000   0.00000   0.00000   0.03531
  94  H 2   s        0.12476   0.00000   0.00000   0.00000   0.00000   0.77681
  95  H 3   s       -0.14108   0.00000   0.00000   0.00000   0.00000   0.03531
  96  H 3   s       -0.12476   0.00000   0.00000   0.00000   0.00000   0.77681
  97  H 4   s        0.14108   0.00000   0.00000   0.00000   0.00000   0.03531
  98  H 4   s        0.12476   0.00000   0.00000   0.00000   0.00000   0.77681
  99  H 5   s       -0.14108   0.00000   0.00000   0.00000   0.00000   0.03531
 100  H 5   s       -0.12476   0.00000   0.00000   0.00000   0.00000   0.77681
 101  H 6   s        0.00000   0.00000   0.00000   0.00000   0.00000   0.03531
 102  H 6   s        0.00000   0.00000   0.00000   0.00000   0.00000   0.77681
                        25        26
 eigenvalues:          0.292     0.292
   1  H 1   s       -0.00829   0.00000
   2  H 1   s       -1.33298   0.00000
   3  C 1   s       -0.03822   0.00000
   4  C 1   s        0.01393   0.00000
   5  C 1   px       0.20405   0.00000
   6  C 1   py       0.00000  -0.01685
   7  C 1   pz       0.00000   0.00000
   8  C 1   s        1.12009   0.00000
   9  C 1   px       0.68366   0.00000
  10  C 1   py       0.00000   0.30247
  11  C 1   pz       0.00000   0.00000
  12  C 1   dxx     -0.00566   0.00000
  13  C 1   dxy      0.00000  -0.01177
  14  C 1   dyy      0.00660   0.00000
  15  C 1   dxz      0.00000   0.00000
  16  C 1   dyz      0.00000   0.00000
  17  C 1   dzz     -0.00467   0.00000
  18  C 2   s        0.03822   0.00000
  19  C 2   s       -0.01393   0.00000
  20  C 2   px       0.20405   0.00000
  21  C 2   py       0.00000  -0.01685
  22  C 2   pz       0.00000   0.00000
  23  C 2   s       -1.12009   0.00000
  24  C 2   px       0.68366   0.00000
  25  C 2   py       0.00000   0.30247
  26  C 2   pz       0.00000   0.00000
  27  C 2   dxx      0.00566   0.00000
  28  C 2   dxy      0.00000   0.01177
  29  C 2   dyy     -0.00660   0.00000
  30  C 2   dxz      0.00000   0.00000
  31  C 2   dyz      0.00000   0.00000
  32  C 2   dzz      0.00467   0.00000
  33  C 3   s       -0.01911   0.03310
  34  C 3   s        0.00697  -0.01207
  35  C 3   px       0.06365  -0.08106
  36  C 3   py       0.08106  -0.15725
  37  C 3   pz       0.00000   0.00000
  38  C 3   s        0.56004  -0.97002
  39  C 3   px      -0.05594  -0.42701
  40  C 3   py       0.42701  -0.43713
  41  C 3   pz       0.00000   0.00000
  42  C 3   dxx      0.00942   0.00135
  43  C 3   dxy      0.00203   0.00825
  44  C 3   dyy     -0.00895  -0.00217
  45  C 3   dxz      0.00000   0.00000
  46  C 3   dyz      0.00000   0.00000
  47  C 3   dzz     -0.00233   0.00404
  48  C 4   s       -0.01911  -0.03310
  49  C 4   s        0.00697   0.01207
  50  C 4   px       0.06365   0.08106
  51  C 4   py      -0.08106  -0.15725
  52  C 4   pz       0.00000   0.00000
  53  C 4   s        0.56004   0.97002
  54  C 4   px      -0.05594   0.42701
  55  C 4   py      -0.42701  -0.43713
  56  C 4   pz       0.00000   0.00000
  57  C 4   dxx      0.00942  -0.00135
  58  C 4   dxy     -0.00203   0.00825
  59  C 4   dyy     -0.00895   0.00217
  60  C 4   dxz      0.00000   0.00000
  61  C 4   dyz      0.00000   0.00000
  62  C 4   dzz     -0.00233  -0.00404
  63  C 5   s        0.01911  -0.03310
  64  C 5   s       -0.00697   0.01207
  65  C 5   px       0.06365  -0.08106
  66  C 5   py       0.08106  -0.15725
  67  C 5   pz       0.00000   0.00000
  68  C 5   s       -0.56004   0.97002
  69  C 5   px      -0.05594  -0.42701
  70  C 5   py       0.42701  -0.43713
  71  C 5   pz       0.00000   0.00000
  72  C 5   dxx     -0.00942  -0.00135
  73  C 5   dxy     -0.00203  -0.00825
  74  C 5   dyy      0.00895   0.00217
  75  C 5   dxz      0.00000   0.00000
  76  C 5   dyz      0.00000   0.00000
  77  C 5   dzz      0.00233  -0.00404
  78  C 6   s        0.01911   0.03310
  79  C 6   s       -0.00697  -0.01207
  80  C 6   px       0.06365   0.08106
  81  C 6   py      -0.08106  -0.15725
  82  C 6   pz       0.00000   0.00000
  83  C 6   s       -0.56004  -0.97002
  84  C 6   px      -0.05594   0.42701
  85  C 6   py      -0.42701  -0.43713
  86  C 6   pz       0.00000   0.00000
  87  C 6   dxx     -0.00942   0.00135
  88  C 6   dxy      0.00203  -0.00825
  89  C 6   dyy      0.00895  -0.00217
  90  C 6   dxz      0.00000   0.00000
  91  C 6   dyz      0.00000   0.00000
  92  C 6   dzz      0.00233   0.00404
  93  H 2   s       -0.00414   0.00718
  94  H 2   s       -0.66649   1.15439
  95  H 3   s       -0.00414  -0.00718
  96  H 3   s       -0.66649  -1.15439
  97  H 4   s        0.00414  -0.00718
  98  H 4   s        0.66649  -1.15439
  99  H 5   s        0.00414   0.00718
 100  H 5   s        0.66649   1.15439
 101  H 6   s        0.00829   0.00000
 102  H 6   s        1.33298   0.00000
 
          Ground-State Mulliken Net Atomic Charges

     Atom                 Charge (a.u.)
  ----------------------------------------
      1 H                     0.200037
      2 C                    -0.200037
      3 C                    -0.200037
      4 C                    -0.200037
      5 C                    -0.200037
      6 C                    -0.200037
      7 C                    -0.200037
      8 H                     0.200037
      9 H                     0.200037
     10 H                     0.200037
     11 H                     0.200037
     12 H                     0.200037
  ----------------------------------------
  Sum of atomic charges =     0.000000

 -----------------------------------------------------------------
                    Cartesian Multipole Moments
 -----------------------------------------------------------------
    Charge (ESU x 10^10)
                 0.0000
    Dipole Moment (Debye)
         X       0.0000      Y       0.0000      Z       0.0000
       Tot       0.0000
    Quadrupole Moments (Debye-Ang)
        XX     -31.3778     XY       0.0000     YY     -31.3778
        XZ       0.0000     YZ       0.0000     ZZ     -39.9433
    Octapole Moments (Debye-Ang^2)
       XXX       0.0000    XXY       0.0000    XYY       0.0000
       YYY       0.0000    XXZ       0.0000    XYZ       0.0000
       YYZ       0.0000    XZZ       0.0000    YZZ       0.0000
       ZZZ       0.0000
    Hexadecapole Moments (Debye-Ang^3)
      XXXX    -265.8567   XXXY       0.0000   XXYY     -88.6189
      XYYY       0.0000   YYYY    -265.8567   XXXZ       0.0000
      XXYZ       0.0000   XYYZ       0.0000   YYYZ       0.0000
      XXZZ     -62.0569   XYZZ       0.0000   YYZZ     -62.0569
      XZZZ       0.0000   YZZZ       0.0000   ZZZZ     -43.2050
 -----------------------------------------------------------------
 Calculating analytic gradient of the SCF energy
 Gradient of SCF Energy
            1           2           3           4           5           6
    1   0.0083833   0.0011484  -0.0011484   0.0005742   0.0005742  -0.0005742
    2  -0.0000000  -0.0000000   0.0000000   0.0009945  -0.0009945  -0.0009945
    3  -0.0000000   0.0000000   0.0000000  -0.0000000  -0.0000000   0.0000000
            7           8           9          10          11          12
    1  -0.0005742   0.0041916   0.0041916  -0.0041916  -0.0041916  -0.0083833
    2   0.0009945   0.0072601  -0.0072601  -0.0072601   0.0072601  -0.0000000
    3  -0.0000000   0.0000000   0.0000000  -0.0000000  -0.0000000  -0.0000000
 Max gradient component =       8.383E-03
 RMS gradient           =       3.454E-03
 Gradient time:  CPU 4.79 s  wall 4.47 s


** GEOMETRY OPTIMIZATION IN DELOCALIZED INTERNAL COORDINATES **
   Searching for a Minimum

   Optimization Cycle:   1

                       Coordinates (Angstroms)
     ATOM              X           Y           Z
    1  H           2.481556    0.000000    0.000000
    2  C           1.394826    0.000000    0.000000
    3  C          -1.394826    0.000000    0.000000
    4  C           0.697413    1.207955    0.000000
    5  C           0.697413   -1.207955    0.000000
    6  C          -0.697413   -1.207955    0.000000
    7  C          -0.697413    1.207955    0.000000
    8  H           1.240778    2.149090    0.000000
    9  H           1.240778   -2.149090    0.000000
   10  H          -1.240778   -2.149090    0.000000
   11  H          -1.240778    2.149090    0.000000
   12  H          -2.481556    0.000000    0.000000
   Point Group: d6h   Number of degrees of freedom:   2


   Energy is   -230.702131486


 Attempting to Generate Delocalized Internal Coordinates

  2 Hessian modes will be used to form the next step
  Hessian Eigenvalues:
     0.351933    0.464889

 Minimum Search - Taking Simple RFO Step
 Searching for Lamda that Minimizes Along All modes
 Value Taken    Lamda =  -0.00235678
 Step Taken.  Stepsize is  0.076526

                             Maximum     Tolerance    Cnvgd?
         Gradient           0.030656      0.000300      NO
         Displacement       0.072978      0.001200      NO
         Energy change     *********      0.000001      NO


 New Cartesian Coordinates Obtained by Inverse Iteration

 Displacement from previous Coordinates is:  0.118935
 Writing REM_CC_EA           12
 ----------------------------------------------------
       Standard Nuclear Orientation (Angstroms)
    I     Atom         X            Y            Z
 ----------------------------------------------------
    1      H       2.458239     0.000000     0.000000
    2      C       1.384031     0.000000     0.000000
    3      C      -1.384031     0.000000     0.000000
    4      C       0.692015     1.198606     0.000000
    5      C       0.692015    -1.198606     0.000000
    6      C      -0.692015    -1.198606     0.000000
    7      C      -0.692015     1.198606     0.000000
    8      H       1.229120     2.128898     0.000000
    9      H       1.229120    -2.128898     0.000000
   10      H      -1.229120    -2.128898     0.000000
   11      H      -1.229120     2.128898     0.000000
   12      H      -2.458239     0.000000     0.000000
 ----------------------------------------------------
 Molecular Point Group                 D6h   NOp = 24
 Largest Abelian Subgroup              D2h   NOp =  8
 Nuclear Repulsion Energy =   205.1208205187 hartrees
 There are       21 alpha and       21 beta electrons
 Applying Cartesian multipole field
    Component          Value
    ---------          -----
     (2,0,0)        1.00000E-11
     (0,2,0)        2.00000E-11
     (0,0,2)       -3.00000E-10
 Nucleus-field energy     =     0.0000000056 hartrees
 Requested basis set is 6-31G(d)
Basis set in general basis input format:
-----------------------------------------------------------------------
$basis
H    0
S    3    1.000000
   1.87311370E+01    3.34946000E-02 
   2.82539370E+00    2.34726950E-01 
   6.40121700E-01    8.13757330E-01 
S    1    1.000000
   1.61277800E-01    1.00000000E+00 
****
C    0
S    6    1.000000
   3.04752490E+03    1.83470000E-03 
   4.57369510E+02    1.40373000E-02 
   1.03948690E+02    6.88426000E-02 
   2.92101550E+01    2.32184400E-01 
   9.28666300E+00    4.67941300E-01 
   3.16392700E+00    3.62312000E-01 
SP   3    1.000000
   7.86827240E+00   -1.19332400E-01   6.89991000E-02 
   1.88128850E+00   -1.60854200E-01   3.16424000E-01 
   5.44249300E-01    1.14345640E+00   7.44308300E-01 
SP   1    1.000000
   1.68714400E-01    1.00000000E+00   1.00000000E+00 
D    1    1.000000
   8.00000000E-01    1.00000000E+00 
****
C    0
S    6    1.000000
   3.04752490E+03    1.83470000E-03 
   4.57369510E+02    1.40373000E-02 
   1.03948690E+02    6.88426000E-02 
   2.92101550E+01    2.32184400E-01 
   9.28666300E+00    4.67941300E-01 
   3.16392700E+00    3.62312000E-01 
SP   3    1.000000
   7.86827240E+00   -1.19332400E-01   6.89991000E-02 
   1.88128850E+00   -1.60854200E-01   3.16424000E-01 
   5.44249300E-01    1.14345640E+00   7.44308300E-01 
SP   1    1.000000
   1.68714400E-01    1.00000000E+00   1.00000000E+00 
D    1    1.000000
   8.00000000E-01    1.00000000E+00 
****
C    0
S    6    1.000000
   3.04752490E+03    1.83470000E-03 
   4.57369510E+02    1.40373000E-02 
   1.03948690E+02    6.88426000E-02 
   2.92101550E+01    2.32184400E-01 
   9.28666300E+00    4.67941300E-01 
   3.16392700E+00    3.62312000E-01 
SP   3    1.000000
   7.86827240E+00   -1.19332400E-01   6.89991000E-02 
   1.88128850E+00   -1.60854200E-01   3.16424000E-01 
   5.44249300E-01    1.14345640E+00   7.44308300E-01 
SP   1    1.000000
   1.68714400E-01    1.00000000E+00   1.00000000E+00 
D    1    1.000000
   8.00000000E-01    1.00000000E+00 
****
C    0
S    6    1.000000
   3.04752490E+03    1.83470000E-03 
   4.57369510E+02    1.40373000E-02 
   1.03948690E+02    6.88426000E-02 
   2.92101550E+01    2.32184400E-01 
   9.28666300E+00    4.67941300E-01 
   3.16392700E+00    3.62312000E-01 
SP   3    1.000000
   7.86827240E+00   -1.19332400E-01   6.89991000E-02 
   1.88128850E+00   -1.60854200E-01   3.16424000E-01 
   5.44249300E-01    1.14345640E+00   7.44308300E-01 
SP   1    1.000000
   1.68714400E-01    1.00000000E+00   1.00000000E+00 
D    1    1.000000
   8.00000000E-01    1.00000000E+00 
****
C    0
S    6    1.000000
   3.04752490E+03    1.83470000E-03 
   4.57369510E+02    1.40373000E-02 
   1.03948690E+02    6.88426000E-02 
   2.92101550E+01    2.32184400E-01 
   9.28666300E+00    4.67941300E-01 
   3.16392700E+00    3.62312000E-01 
SP   3    1.000000
   7.86827240E+00   -1.19332400E-01   6.89991000E-02 
   1.88128850E+00   -1.60854200E-01   3.16424000E-01 
   5.44249300E-01    1.14345640E+00   7.44308300E-01 
SP   1    1.000000
   1.68714400E-01    1.00000000E+00   1.00000000E+00 
D    1    1.000000
   8.00000000E-01    1.00000000E+00 
****
C    0
S    6    1.000000
   3.04752490E+03    1.83470000E-03 
   4.57369510E+02    1.40373000E-02 
   1.03948690E+02    6.88426000E-02 
   2.92101550E+01    2.32184400E-01 
   9.28666300E+00    4.67941300E-01 
   3.16392700E+00    3.62312000E-01 
SP   3    1.000000
   7.86827240E+00   -1.19332400E-01   6.89991000E-02 
   1.88128850E+00   -1.60854200E-01   3.16424000E-01 
   5.44249300E-01    1.14345640E+00   7.44308300E-01 
SP   1    1.000000
   1.68714400E-01    1.00000000E+00   1.00000000E+00 
D    1    1.000000
   8.00000000E-01    1.00000000E+00 
****
H    0
S    3    1.000000
   1.87311370E+01    3.34946000E-02 
   2.82539370E+00    2.34726950E-01 
   6.40121700E-01    8.13757330E-01 
S    1    1.000000
   1.61277800E-01    1.00000000E+00 
****
H    0
S    3    1.000000
   1.87311370E+01    3.34946000E-02 
   2.82539370E+00    2.34726950E-01 
   6.40121700E-01    8.13757330E-01 
S    1    1.000000
   1.61277800E-01    1.00000000E+00 
****
H    0
S    3    1.000000
   1.87311370E+01    3.34946000E-02 
   2.82539370E+00    2.34726950E-01 
   6.40121700E-01    8.13757330E-01 
S    1    1.000000
   1.61277800E-01    1.00000000E+00 
****
H    0
S    3    1.000000
   1.87311370E+01    3.34946000E-02 
   2.82539370E+00    2.34726950E-01 
   6.40121700E-01    8.13757330E-01 
S    1    1.000000
   1.61277800E-01    1.00000000E+00 
****
H    0
S    3    1.000000
   1.87311370E+01    3.34946000E-02 
   2.82539370E+00    2.34726950E-01 
   6.40121700E-01    8.13757330E-01 
S    1    1.000000
   1.61277800E-01    1.00000000E+00 
****
$end
-----------------------------------------------------------------------
 There are 36 shells and 102 basis functions
 A cutoff of  1.0D-11 yielded    648 shell pairs
 There are   5397 function pairs
Evaluating contribution to one-electron hamiltonian from nuclear
 Smallest overlap matrix eigenvalue = 4.75E-04
 Multipole matrices computed through 2nd order
 Guess MOs from SCF MO coefficient file
Reading MOs from coefficient file
Reading MOs from coefficient file
 A restricted Hartree-Fock SCF calculation will be
 performed using Pulay DIIS extrapolation
 SCF converges when DIIS error is below 1.0E-08
 ---------------------------------------
  Cycle       Energy         DIIS Error
 ---------------------------------------
    1    -230.7699403424      1.10E-03
    2    -230.7030329992      1.91E-04
    3    -230.7030906581      8.24E-05
    4    -230.7030989285      1.02E-05
    5    -230.7030991850      1.81E-06
    6    -230.7030991938      3.73E-07
    7    -230.7030991948      3.96E-08
    8    -230.7030991952      3.10E-09 Convergence criterion met
 ---------------------------------------
 SCF time:  CPU 13.99 s  wall 5.34 s
 Analysis of SCF Wavefunction
 
 --------------------------------------------------------------
             Orbital Energies (a.u.) and Symmetries
 --------------------------------------------------------------
 
 Alpha MOs, Restricted
 -- Occupied --                  
-11.229 -11.228 -11.228 -11.227 -11.227 -11.226  -1.149  -1.012
  1 A1g   1 E1u   1 E1u   1 E2g   1 E2g   1 B1u   2 A1g   2 E1u                
 -1.012  -0.820  -0.820  -0.708  -0.640  -0.615  -0.585  -0.585
  2 E1u   2 E2g   2 E2g   3 A1g   2 B1u   1 B2u   3 E1u   3 E1u                
 -0.499  -0.490  -0.490  -0.331  -0.331
  1 A2u   3 E2g   3 E2g   1 E1g   1 E1g                                        
 -- Virtual --                   
  0.150   0.150   0.236   0.295   0.295   0.334   0.334   0.339
  1 E2u   1 E2u   4 A1g   4 E1u   4 E1u   4 E2g   4 E2g   3 B1u                
  0.373   0.476   0.476   0.502   0.502   0.657   0.741   0.755
  1 B2g   5 E2g   5 E2g   5 E1u   5 E1u   2 B2u   5 A1g   2 A2u                
  0.787   0.788   0.796   0.831   0.831   0.845   0.845   0.856
  1 A2g   6 A1g   4 B1u   2 E1g   2 E1g   6 E1u   6 E1u   6 E2g                
  0.856   0.915   0.915   0.999   1.119   1.119   1.122   1.122
  6 E2g   2 E2u   2 E2u   2 B2g   7 E2g   7 E2g   7 E1u   7 E1u                
  1.131   1.193   1.193   1.211   1.259   1.306   1.306   1.397
  5 B1u   8 E1u   8 E1u   7 A1g   2 A2g   8 E2g   8 E2g   9 E1u                
  1.397   1.475   1.519   1.658   1.709   1.709   1.772   1.772
  9 E1u   6 B1u   1 B1g   3 A2u   9 E2g   9 E2g   3 E2u   3 E2u                
  1.797   1.797   2.053   2.102   2.179   2.185   2.324   2.324
  3 E1g   3 E1g   8 A1g   3 B2u   7 B1u   9 A1g  10 E1u  10 E1u                
  2.415   2.415   2.477   2.477   2.492   2.492   2.651   2.651
 10 E2g  10 E2g   4 E2u   4 E2u  11 E1u  11 E1u   4 E1g   4 E1g                
  2.663   2.892   2.892   3.026   3.098   3.098   3.101   3.104
  3 B2g  11 E2g  11 E2g   1 A1u  12 E1u  12 E1u   8 B1u  12 E2g                
  3.104   3.409   3.837   4.530   4.550   4.550   4.762   4.762
 12 E2g   3 A2g   9 B1u  10 A1g  13 E1u  13 E1u  13 E2g  13 E2g                
  5.110
 10 B1u                                                                        
 
 Beta MOs, Restricted
 -- Occupied --                  
-11.229 -11.228 -11.228 -11.227 -11.227 -11.226  -1.149  -1.012
  1 A1g   1 E1u   1 E1u   1 E2g   1 E2g   1 B1u   2 A1g   2 E1u                
 -1.012  -0.820  -0.820  -0.708  -0.640  -0.615  -0.585  -0.585
  2 E1u   2 E2g   2 E2g   3 A1g   2 B1u   1 B2u   3 E1u   3 E1u                
 -0.499  -0.490  -0.490  -0.331  -0.331
  1 A2u   3 E2g   3 E2g   1 E1g   1 E1g                                        
 -- Virtual --                   
  0.150   0.150   0.236   0.295   0.295   0.334   0.334   0.339
  1 E2u   1 E2u   4 A1g   4 E1u   4 E1u   4 E2g   4 E2g   3 B1u                
  0.373   0.476   0.476   0.502   0.502   0.657   0.741   0.755
  1 B2g   5 E2g   5 E2g   5 E1u   5 E1u   2 B2u   5 A1g   2 A2u                
  0.787   0.788   0.796   0.831   0.831   0.845   0.845   0.856
  1 A2g   6 A1g   4 B1u   2 E1g   2 E1g   6 E1u   6 E1u   6 E2g                
  0.856   0.915   0.915   0.999   1.119   1.119   1.122   1.122
  6 E2g   2 E2u   2 E2u   2 B2g   7 E2g   7 E2g   7 E1u   7 E1u                
  1.131   1.193   1.193   1.211   1.259   1.306   1.306   1.397
  5 B1u   8 E1u   8 E1u   7 A1g   2 A2g   8 E2g   8 E2g   9 E1u                
  1.397   1.475   1.519   1.658   1.709   1.709   1.772   1.772
  9 E1u   6 B1u   1 B1g   3 A2u   9 E2g   9 E2g   3 E2u   3 E2u                
  1.797   1.797   2.053   2.102   2.179   2.185   2.324   2.324
  3 E1g   3 E1g   8 A1g   3 B2u   7 B1u   9 A1g  10 E1u  10 E1u                
  2.415   2.415   2.477   2.477   2.492   2.492   2.651   2.651
 10 E2g  10 E2g   4 E2u   4 E2u  11 E1u  11 E1u   4 E1g   4 E1g                
  2.663   2.892   2.892   3.026   3.098   3.098   3.101   3.104
  3 B2g  11 E2g  11 E2g   1 A1u  12 E1u  12 E1u   8 B1u  12 E2g                
  3.104   3.409   3.837   4.530   4.550   4.550   4.762   4.762
 12 E2g   3 A2g   9 B1u  10 A1g  13 E1u  13 E1u  13 E2g  13 E2g                
  5.110
 10 B1u                                                                        
 --------------------------------------------------------------
 

                        RESTRICTED (RHF) MOLECULAR ORBITAL COEFFICIENTS
                         1         2         3         4         5         6
 eigenvalues:        -11.229   -11.228   -11.228   -11.227   -11.227   -11.226
   1  H 1   s       -0.00011  -0.00013   0.00000  -0.00009   0.00000   0.00015
   2  H 1   s        0.00084   0.00093   0.00000   0.00085   0.00000   0.00023
   3  C 1   s        0.40624   0.57467   0.00000   0.57498   0.00000  -0.40675
   4  C 1   s        0.01112   0.01608   0.00000   0.01623   0.00000  -0.01176
   5  C 1   px       0.00003  -0.00008   0.00000  -0.00020   0.00000   0.00022
   6  C 1   py       0.00000   0.00000  -0.00013   0.00000  -0.00013   0.00000
   7  C 1   pz       0.00000   0.00000   0.00000   0.00000   0.00000   0.00000
   8  C 1   s       -0.00221  -0.00501   0.00000  -0.00987   0.00000   0.01560
   9  C 1   px      -0.00032   0.00024   0.00000   0.00170   0.00000  -0.00564
  10  C 1   py       0.00000   0.00000   0.00124   0.00000   0.00124   0.00000
  11  C 1   pz       0.00000   0.00000   0.00000   0.00000   0.00000   0.00000
  12  C 1   dxx     -0.00091  -0.00127   0.00000  -0.00094   0.00000   0.00040
  13  C 1   dxy      0.00000   0.00000   0.00001   0.00000   0.00013   0.00000
  14  C 1   dyy     -0.00095  -0.00120   0.00000  -0.00063   0.00000   0.00014
  15  C 1   dxz      0.00000   0.00000   0.00000   0.00000   0.00000   0.00000
  16  C 1   dyz      0.00000   0.00000   0.00000   0.00000   0.00000   0.00000
  17  C 1   dzz     -0.00111  -0.00145   0.00000  -0.00136   0.00000   0.00081
  18  C 2   s        0.40624  -0.57467   0.00000   0.57498   0.00000   0.40675
  19  C 2   s        0.01112  -0.01608   0.00000   0.01623   0.00000   0.01176
  20  C 2   px      -0.00003  -0.00008   0.00000   0.00020   0.00000   0.00022
  21  C 2   py       0.00000   0.00000  -0.00013   0.00000   0.00013   0.00000
  22  C 2   pz       0.00000   0.00000   0.00000   0.00000   0.00000   0.00000
  23  C 2   s       -0.00221   0.00501   0.00000  -0.00987   0.00000  -0.01560
  24  C 2   px       0.00032   0.00024   0.00000  -0.00170   0.00000  -0.00564
  25  C 2   py       0.00000   0.00000   0.00124   0.00000  -0.00124   0.00000
  26  C 2   pz       0.00000   0.00000   0.00000   0.00000   0.00000   0.00000
  27  C 2   dxx     -0.00091   0.00127   0.00000  -0.00094   0.00000  -0.00040
  28  C 2   dxy      0.00000   0.00000  -0.00001   0.00000   0.00013   0.00000
  29  C 2   dyy     -0.00095   0.00120   0.00000  -0.00063   0.00000  -0.00014
  30  C 2   dxz      0.00000   0.00000   0.00000   0.00000   0.00000   0.00000
  31  C 2   dyz      0.00000   0.00000   0.00000   0.00000   0.00000   0.00000
  32  C 2   dzz     -0.00111   0.00145   0.00000  -0.00136   0.00000  -0.00081
  33  C 3   s        0.40624   0.28734   0.49768  -0.28749   0.49794   0.40675
  34  C 3   s        0.01112   0.00804   0.01393  -0.00811   0.01405   0.01176
  35  C 3   px       0.00002  -0.00012   0.00002  -0.00005  -0.00014  -0.00011
  36  C 3   py       0.00003   0.00002  -0.00009   0.00014  -0.00012  -0.00019
  37  C 3   pz       0.00000   0.00000   0.00000   0.00000   0.00000   0.00000
  38  C 3   s       -0.00221  -0.00251  -0.00434   0.00494  -0.00855  -0.01560
  39  C 3   px      -0.00016   0.00099  -0.00044   0.00050   0.00127   0.00282
  40  C 3   py      -0.00028  -0.00044   0.00049  -0.00127   0.00097   0.00489
  41  C 3   pz       0.00000   0.00000   0.00000   0.00000   0.00000   0.00000
  42  C 3   dxx     -0.00094  -0.00060  -0.00106   0.00044  -0.00057  -0.00021
  43  C 3   dxy      0.00002  -0.00001  -0.00003   0.00013  -0.00010  -0.00013
  44  C 3   dyy     -0.00092  -0.00063  -0.00108   0.00035  -0.00080  -0.00034
  45  C 3   dxz      0.00000   0.00000   0.00000   0.00000   0.00000   0.00000
  46  C 3   dyz      0.00000   0.00000   0.00000   0.00000   0.00000   0.00000
  47  C 3   dzz     -0.00111  -0.00072  -0.00125   0.00068  -0.00118  -0.00081
  48  C 4   s        0.40624   0.28734  -0.49768  -0.28749  -0.49794   0.40675
  49  C 4   s        0.01112   0.00804  -0.01393  -0.00811  -0.01405   0.01176
  50  C 4   px       0.00002  -0.00012  -0.00002  -0.00005   0.00014  -0.00011
  51  C 4   py      -0.00003  -0.00002  -0.00009  -0.00014  -0.00012   0.00019
  52  C 4   pz       0.00000   0.00000   0.00000   0.00000   0.00000   0.00000
  53  C 4   s       -0.00221  -0.00251   0.00434   0.00494   0.00855  -0.01560
  54  C 4   px      -0.00016   0.00099   0.00044   0.00050  -0.00127   0.00282
  55  C 4   py       0.00028   0.00044   0.00049   0.00127   0.00097  -0.00489
  56  C 4   pz       0.00000   0.00000   0.00000   0.00000   0.00000   0.00000
  57  C 4   dxx     -0.00094  -0.00060   0.00106   0.00044   0.00057  -0.00021
  58  C 4   dxy     -0.00002   0.00001  -0.00003  -0.00013  -0.00010   0.00013
  59  C 4   dyy     -0.00092  -0.00063   0.00108   0.00035   0.00080  -0.00034
  60  C 4   dxz      0.00000   0.00000   0.00000   0.00000   0.00000   0.00000
  61  C 4   dyz      0.00000   0.00000   0.00000   0.00000   0.00000   0.00000
  62  C 4   dzz     -0.00111  -0.00072   0.00125   0.00068   0.00118  -0.00081
  63  C 5   s        0.40624  -0.28734  -0.49768  -0.28749   0.49794  -0.40675
  64  C 5   s        0.01112  -0.00804  -0.01393  -0.00811   0.01405  -0.01176
  65  C 5   px      -0.00002  -0.00012   0.00002   0.00005   0.00014  -0.00011
  66  C 5   py      -0.00003   0.00002  -0.00009  -0.00014   0.00012  -0.00019
  67  C 5   pz       0.00000   0.00000   0.00000   0.00000   0.00000   0.00000
  68  C 5   s       -0.00221   0.00251   0.00434   0.00494  -0.00855   0.01560
  69  C 5   px       0.00016   0.00099  -0.00044  -0.00050  -0.00127   0.00282
  70  C 5   py       0.00028  -0.00044   0.00049   0.00127  -0.00097   0.00489
  71  C 5   pz       0.00000   0.00000   0.00000   0.00000   0.00000   0.00000
  72  C 5   dxx     -0.00094   0.00060   0.00106   0.00044  -0.00057   0.00021
  73  C 5   dxy      0.00002   0.00001   0.00003   0.00013  -0.00010   0.00013
  74  C 5   dyy     -0.00092   0.00063   0.00108   0.00035  -0.00080   0.00034
  75  C 5   dxz      0.00000   0.00000   0.00000   0.00000   0.00000   0.00000
  76  C 5   dyz      0.00000   0.00000   0.00000   0.00000   0.00000   0.00000
  77  C 5   dzz     -0.00111   0.00072   0.00125   0.00068  -0.00118   0.00081
  78  C 6   s        0.40624  -0.28734   0.49768  -0.28749  -0.49794  -0.40675
  79  C 6   s        0.01112  -0.00804   0.01393  -0.00811  -0.01405  -0.01176
  80  C 6   px      -0.00002  -0.00012  -0.00002   0.00005  -0.00014  -0.00011
  81  C 6   py       0.00003  -0.00002  -0.00009   0.00014   0.00012   0.00019
  82  C 6   pz       0.00000   0.00000   0.00000   0.00000   0.00000   0.00000
  83  C 6   s       -0.00221   0.00251  -0.00434   0.00494   0.00855   0.01560
  84  C 6   px       0.00016   0.00099   0.00044  -0.00050   0.00127   0.00282
  85  C 6   py      -0.00028   0.00044   0.00049  -0.00127  -0.00097  -0.00489
  86  C 6   pz       0.00000   0.00000   0.00000   0.00000   0.00000   0.00000
  87  C 6   dxx     -0.00094   0.00060  -0.00106   0.00044   0.00057   0.00021
  88  C 6   dxy     -0.00002  -0.00001   0.00003  -0.00013  -0.00010  -0.00013
  89  C 6   dyy     -0.00092   0.00063  -0.00108   0.00035   0.00080   0.00034
  90  C 6   dxz      0.00000   0.00000   0.00000   0.00000   0.00000   0.00000
  91  C 6   dyz      0.00000   0.00000   0.00000   0.00000   0.00000   0.00000
  92  C 6   dzz     -0.00111   0.00072  -0.00125   0.00068   0.00118   0.00081
  93  H 2   s       -0.00011  -0.00007  -0.00011   0.00005  -0.00008  -0.00015
  94  H 2   s        0.00084   0.00046   0.00080  -0.00043   0.00074  -0.00023
  95  H 3   s       -0.00011  -0.00007   0.00011   0.00005   0.00008  -0.00015
  96  H 3   s        0.00084   0.00046  -0.00080  -0.00043  -0.00074  -0.00023
  97  H 4   s       -0.00011   0.00007   0.00011   0.00005  -0.00008   0.00015
  98  H 4   s        0.00084  -0.00046  -0.00080  -0.00043   0.00074   0.00023
  99  H 5   s       -0.00011   0.00007  -0.00011   0.00005   0.00008   0.00015
 100  H 5   s        0.00084  -0.00046   0.00080  -0.00043  -0.00074   0.00023
 101  H 6   s       -0.00011   0.00013   0.00000  -0.00009   0.00000  -0.00015
 102  H 6   s        0.00084  -0.00093   0.00000   0.00085   0.00000  -0.00023
                         7         8         9        10        11        12
 eigenvalues:         -1.149    -1.012    -1.012    -0.820    -0.820    -0.708
   1  H 1   s        0.03521  -0.07698   0.00000   0.11339   0.00000   0.11129
   2  H 1   s        0.00343  -0.01451   0.00000   0.03421   0.00000   0.06495
   3  C 1   s       -0.09276   0.12874   0.00000  -0.10025   0.00000  -0.00788
   4  C 1   s        0.17531  -0.24754   0.00000   0.19976   0.00000   0.01415
   5  C 1   px      -0.06015   0.02695   0.00000   0.06521   0.00000   0.19429
   6  C 1   py       0.00000   0.00000  -0.11559   0.00000   0.20675   0.00000
   7  C 1   pz       0.00000   0.00000   0.00000   0.00000   0.00000   0.00000
   8  C 1   s        0.11036  -0.19001   0.00000   0.16465   0.00000   0.03385
   9  C 1   px      -0.00668  -0.00490   0.00000   0.05851   0.00000   0.07049
  10  C 1   py       0.00000   0.00000  -0.01716   0.00000   0.05207   0.00000
  11  C 1   pz       0.00000   0.00000   0.00000   0.00000   0.00000   0.00000
  12  C 1   dxx      0.00561  -0.00736   0.00000   0.01074   0.00000   0.00515
  13  C 1   dxy      0.00000   0.00000   0.01186   0.00000  -0.01221   0.00000
  14  C 1   dyy      0.00823  -0.01002   0.00000   0.00071   0.00000   0.00004
  15  C 1   dxz      0.00000   0.00000   0.00000   0.00000   0.00000   0.00000
  16  C 1   dyz      0.00000   0.00000   0.00000   0.00000   0.00000   0.00000
  17  C 1   dzz     -0.00842   0.01021   0.00000  -0.00714   0.00000  -0.00057
  18  C 2   s       -0.09276  -0.12874   0.00000  -0.10025   0.00000  -0.00788
  19  C 2   s        0.17531   0.24754   0.00000   0.19976   0.00000   0.01415
  20  C 2   px       0.06015   0.02695   0.00000  -0.06521   0.00000  -0.19429
  21  C 2   py       0.00000   0.00000  -0.11559   0.00000  -0.20675   0.00000
  22  C 2   pz       0.00000   0.00000   0.00000   0.00000   0.00000   0.00000
  23  C 2   s        0.11036   0.19001   0.00000   0.16465   0.00000   0.03385
  24  C 2   px       0.00668  -0.00490   0.00000  -0.05851   0.00000  -0.07049
  25  C 2   py       0.00000   0.00000  -0.01716   0.00000  -0.05207   0.00000
  26  C 2   pz       0.00000   0.00000   0.00000   0.00000   0.00000   0.00000
  27  C 2   dxx      0.00561   0.00736   0.00000   0.01074   0.00000   0.00515
  28  C 2   dxy      0.00000   0.00000  -0.01186   0.00000  -0.01221   0.00000
  29  C 2   dyy      0.00823   0.01002   0.00000   0.00071   0.00000   0.00004
  30  C 2   dxz      0.00000   0.00000   0.00000   0.00000   0.00000   0.00000
  31  C 2   dyz      0.00000   0.00000   0.00000   0.00000   0.00000   0.00000
  32  C 2   dzz     -0.00842  -0.01021   0.00000  -0.00714   0.00000  -0.00057
  33  C 3   s       -0.09276   0.06437   0.11149   0.05013  -0.08682  -0.00788
  34  C 3   s        0.17531  -0.12377  -0.21438  -0.09988   0.17300   0.01415
  35  C 3   px      -0.03008  -0.07995   0.06172   0.13876   0.11776   0.09715
  36  C 3   py      -0.05210   0.06172  -0.00868  -0.11776  -0.00278   0.16826
  37  C 3   pz       0.00000   0.00000   0.00000   0.00000   0.00000   0.00000
  38  C 3   s        0.11036  -0.09500  -0.16455  -0.08233   0.14259   0.03385
  39  C 3   px      -0.00334  -0.01410   0.00531   0.02443   0.04788   0.03525
  40  C 3   py      -0.00579   0.00531  -0.00796  -0.04788   0.03086   0.06105
  41  C 3   pz       0.00000   0.00000   0.00000   0.00000   0.00000   0.00000
  42  C 3   dxx      0.00758   0.00302  -0.01255  -0.00954  -0.00179   0.00132
  43  C 3   dxy     -0.00131   0.00580  -0.00181  -0.00779   0.00129   0.00256
  44  C 3   dyy      0.00626  -0.01171  -0.00251   0.00381   0.01171   0.00388
  45  C 3   dxz      0.00000   0.00000   0.00000   0.00000   0.00000   0.00000
  46  C 3   dyz      0.00000   0.00000   0.00000   0.00000   0.00000   0.00000
  47  C 3   dzz     -0.00842   0.00511   0.00884   0.00357  -0.00619  -0.00057
  48  C 4   s       -0.09276   0.06437  -0.11149   0.05013   0.08682  -0.00788
  49  C 4   s        0.17531  -0.12377   0.21438  -0.09988  -0.17300   0.01415
  50  C 4   px      -0.03008  -0.07995  -0.06172   0.13876  -0.11776   0.09715
[...]
   26   0.0001005  -0.0000185   0.0000000  -0.0001474   0.0000975  -0.0000000
   27   0.0000000   0.0000000  -0.0012870   0.0000000   0.0000000   0.0000677
   28   0.0005395   0.0009130   0.0000000   0.0010282  -0.0007932  -0.0000000
   29  -0.0009130  -0.0012285   0.0000000   0.0006021   0.0011385  -0.0000000
   30  -0.0000000   0.0000000   0.0000677   0.0000000  -0.0000000  -0.0049354
   31   0.1518337  -0.1431194   0.0000000   0.0010282   0.0007932  -0.0000000
   32  -0.1431194   0.3170937   0.0000000  -0.0006021   0.0011385  -0.0000000
   33   0.0000000   0.0000000   0.0315852   0.0000000   0.0000000  -0.0049354
   34   0.0010282  -0.0006021   0.0000000   0.3997237  -0.0000000  -0.0000000
   35   0.0007932   0.0011385   0.0000000  -0.0000000   0.0692037  -0.0000000
   36  -0.0000000  -0.0000000  -0.0049354  -0.0000000  -0.0000000   0.0315852
 Gradient time:  CPU 57.38 s  wall 57.73 s
 **********************************************************************
 **                                                                  **
 **                       VIBRATIONAL ANALYSIS                       **
 **                       --------------------                       **
 **                                                                  **
 **        VIBRATIONAL FREQUENCIES (CM**-1) AND NORMAL MODES         **
 **     FORCE CONSTANTS (mDYN/ANGSTROM) AND REDUCED MASSES (AMU)     **
 **                  INFRARED INTENSITIES (KM/MOL)                   **
 **                                                                  **
 **********************************************************************
 

 Mode:                 1                      2                      3
 Frequency:       453.59                 453.59                 665.48
 Force Cnst:      0.3520                 0.3520                 1.5880
 Red. Mass:       2.9042                 2.9042                 6.0858
 IR Active:          NO                     NO                     NO 
 IR Intens:        0.000                  0.000                  0.000
 Raman Active:       NO                     NO                     YES
               X      Y      Z        X      Y      Z        X      Y      Z
 H          0.000  0.000 -0.056    0.000  0.000  0.522   -0.360  0.000  0.000
 C          0.000  0.000 -0.025    0.000  0.000  0.238   -0.360  0.000  0.000
 C          0.000  0.000 -0.025    0.000  0.000  0.238    0.360  0.000  0.000
 C          0.000  0.000  0.219    0.000  0.000 -0.097   -0.027  0.223  0.000
 C          0.000  0.000 -0.194    0.000  0.000 -0.141   -0.027 -0.223  0.000
 C          0.000  0.000  0.219    0.000  0.000 -0.097    0.027 -0.223  0.000
 C          0.000  0.000 -0.194    0.000  0.000 -0.141    0.027  0.223  0.000
 H          0.000  0.000  0.480    0.000  0.000 -0.213    0.257  0.060  0.000
 H          0.000  0.000 -0.424    0.000  0.000 -0.309    0.257 -0.060  0.000
 H          0.000  0.000  0.480    0.000  0.000 -0.213   -0.257 -0.060  0.000
 H          0.000  0.000 -0.424    0.000  0.000 -0.309   -0.257  0.060  0.000
 H          0.000  0.000 -0.056    0.000  0.000  0.522    0.360  0.000  0.000
 TransDip   0.000  0.000  0.000    0.000  0.000  0.000    0.000  0.000  0.000

 Mode:                 4                      5                      6
 Frequency:       665.48                 764.48                 777.15
 Force Cnst:      1.5880                 0.3735                 1.1690
 Red. Mass:       6.0858                 1.0848                 3.2852
 IR Active:          NO                     YES                    NO 
 IR Intens:        0.000                107.251                  0.000
 Raman Active:       YES                    NO                     NO 
               X      Y      Z        X      Y      Z        X      Y      Z
 H          0.000 -0.222  0.000    0.000  0.000  0.407    0.000  0.000 -0.364
 C          0.000  0.156  0.000    0.000  0.000 -0.034    0.000  0.000 -0.186
 C          0.000 -0.156  0.000    0.000  0.000 -0.034    0.000  0.000  0.186
 C          0.223  0.231  0.000    0.000  0.000 -0.034    0.000  0.000  0.186
 C         -0.223  0.231  0.000    0.000  0.000 -0.034    0.000  0.000  0.186
 C         -0.223 -0.231  0.000    0.000  0.000 -0.034    0.000  0.000 -0.186
 C          0.223 -0.231  0.000    0.000  0.000 -0.034    0.000  0.000 -0.186
 H          0.060  0.326  0.000    0.000  0.000  0.407    0.000  0.000  0.364
 H         -0.060  0.326  0.000    0.000  0.000  0.407    0.000  0.000  0.364
 H         -0.060 -0.326  0.000    0.000  0.000  0.407    0.000  0.000 -0.364
 H          0.060 -0.326  0.000    0.000  0.000  0.407    0.000  0.000 -0.364
 H          0.000  0.222  0.000    0.000  0.000  0.407    0.000  0.000  0.364
 TransDip   0.000  0.000  0.000    0.000  0.000  0.332    0.000  0.000  0.000

 Mode:                 7                      8                      9
 Frequency:       961.43                 961.43                1083.64
 Force Cnst:      0.6791                 0.6791                 4.1583
 Red. Mass:       1.2470                 1.2470                 6.0103
 IR Active:          NO                     NO                     NO 
 IR Intens:        0.000                  0.000                  0.000
 Raman Active:       YES                    YES                    YES
               X      Y      Z        X      Y      Z        X      Y      Z
 H          0.000  0.000  0.000    0.000  0.000  0.571    0.301  0.000  0.000
 C          0.000  0.000  0.000    0.000  0.000 -0.085    0.275  0.000  0.000
 C          0.000  0.000  0.000    0.000  0.000  0.085   -0.275  0.000  0.000
 C          0.000  0.000 -0.074    0.000  0.000 -0.043    0.138  0.239  0.000
 C          0.000  0.000  0.074    0.000  0.000 -0.043    0.138 -0.239  0.000
 C          0.000  0.000  0.074    0.000  0.000  0.043   -0.138 -0.239  0.000
 C          0.000  0.000 -0.074    0.000  0.000  0.043   -0.138  0.239  0.000
 H          0.000  0.000  0.495    0.000  0.000  0.286    0.151  0.261  0.000
 H          0.000  0.000 -0.495    0.000  0.000  0.286    0.151 -0.261  0.000
 H          0.000  0.000 -0.495    0.000  0.000 -0.286   -0.151 -0.261  0.000
 H          0.000  0.000  0.495    0.000  0.000 -0.286   -0.151  0.261  0.000
 H          0.000  0.000  0.000    0.000  0.000 -0.571   -0.301  0.000  0.000
 TransDip   0.000  0.000  0.000    0.000  0.000  0.000    0.000  0.000  0.000

 Mode:                10                     11                     12
 Frequency:      1096.54                1100.26                1100.26
 Force Cnst:      4.6028                 0.9754                 0.9754
 Red. Mass:       6.4972                 1.3676                 1.3676
 IR Active:          NO                     NO                     NO 
 IR Intens:        0.000                  0.000                  0.000
 Raman Active:       NO                     NO                     NO 
               X      Y      Z        X      Y      Z        X      Y      Z
 H          0.289  0.000  0.000    0.000  0.000 -0.008    0.000  0.000  0.568
 C          0.288  0.000  0.000    0.000  0.000  0.002    0.000  0.000 -0.104
 C          0.288  0.000  0.000    0.000  0.000  0.002    0.000  0.000 -0.104
 C         -0.144 -0.250  0.000    0.000  0.000  0.090    0.000  0.000  0.054
 C         -0.144  0.250  0.000    0.000  0.000 -0.091    0.000  0.000  0.051
 C         -0.144 -0.250  0.000    0.000  0.000  0.090    0.000  0.000  0.054
 C         -0.144  0.250  0.000    0.000  0.000 -0.091    0.000  0.000  0.051
 H         -0.144 -0.250  0.000    0.000  0.000 -0.488    0.000  0.000 -0.291
 H         -0.144  0.250  0.000    0.000  0.000  0.496    0.000  0.000 -0.277
 H         -0.144 -0.250  0.000    0.000  0.000 -0.488    0.000  0.000 -0.291
 H         -0.144  0.250  0.000    0.000  0.000  0.496    0.000  0.000 -0.277
 H          0.289  0.000  0.000    0.000  0.000 -0.008    0.000  0.000  0.568
 TransDip   0.000  0.000  0.000    0.000  0.000  0.000    0.000  0.000  0.000

 Mode:                13                     14                     15
 Frequency:      1136.43                1141.88                1141.88
 Force Cnst:      0.9867                 1.3294                 1.3294
 Red. Mass:       1.2967                 1.7305                 1.7305
 IR Active:          NO                     YES                    YES
 IR Intens:        0.000                  2.891                  2.891
 Raman Active:       NO                     NO                     NO 
               X      Y      Z        X      Y      Z        X      Y      Z
 H          0.000  0.000 -0.403   -0.125  0.161  0.000    0.039  0.518  0.000
 C          0.000  0.000  0.066   -0.115  0.026  0.000    0.036  0.082  0.000
 C          0.000  0.000 -0.066   -0.115  0.026  0.000    0.036  0.082  0.000
 C          0.000  0.000 -0.066    0.006 -0.106  0.000   -0.096 -0.039  0.000
 C          0.000  0.000 -0.066    0.059  0.065  0.000    0.075 -0.092  0.000
 C          0.000  0.000  0.066    0.006 -0.106  0.000   -0.096 -0.039  0.000
 C          0.000  0.000  0.066    0.059  0.065  0.000    0.075 -0.092  0.000
 H          0.000  0.000  0.403    0.271 -0.267  0.000   -0.390  0.123  0.000
 H          0.000  0.000  0.403    0.444  0.290  0.000    0.167 -0.051  0.000
 H          0.000  0.000 -0.403    0.271 -0.267  0.000   -0.390  0.123  0.000
 H          0.000  0.000 -0.403    0.444  0.290  0.000    0.167 -0.051  0.000
 H          0.000  0.000  0.403   -0.125  0.161  0.000    0.039  0.518  0.000
 TransDip   0.000  0.000  0.000    0.052  0.016  0.000   -0.016  0.052  0.000

 Mode:                16                     17                     18
 Frequency:      1196.65                1294.04                1294.04
 Force Cnst:      1.9459                 1.1351                 1.1351
 Red. Mass:       2.3064                 1.1505                 1.1505
 IR Active:          NO                     NO                     NO 
 IR Intens:        0.000                  0.000                  0.000
 Raman Active:       NO                     YES                    YES
               X      Y      Z        X      Y      Z        X      Y      Z
 H          0.000  0.383  0.000    0.001  0.000  0.000    0.000  0.574  0.000
 C          0.000  0.140  0.000    0.001  0.000  0.000    0.000  0.066  0.000
 C          0.000  0.140  0.000   -0.001  0.000  0.000    0.000 -0.066  0.000
 C          0.122 -0.070  0.000    0.049 -0.029  0.000    0.029 -0.015  0.000
 C         -0.122 -0.070  0.000    0.049  0.029  0.000   -0.029 -0.016  0.000
 C          0.122 -0.070  0.000   -0.049  0.029  0.000   -0.029  0.015  0.000
 C         -0.122 -0.070  0.000   -0.049 -0.029  0.000    0.029  0.016  0.000
 H          0.332 -0.192  0.000    0.430 -0.249  0.000    0.249 -0.142  0.000
 H         -0.332 -0.192  0.000    0.430  0.249  0.000   -0.249 -0.143  0.000
 H          0.332 -0.192  0.000   -0.430  0.249  0.000   -0.249  0.142  0.000
 H         -0.332 -0.192  0.000   -0.430 -0.249  0.000    0.249  0.143  0.000
 H          0.000  0.383  0.000   -0.001  0.000  0.000    0.000 -0.574  0.000
 TransDip   0.000  0.000  0.000    0.000  0.000  0.000    0.000  0.000  0.000

 Mode:                19                     20                     21
 Frequency:      1351.14                1507.87                1651.87
 Force Cnst:      1.6754                 1.6705                 3.1684
 Red. Mass:       1.5577                 1.2470                 1.9708
 IR Active:          NO                     NO                     YES
 IR Intens:        0.000                  0.000                 11.633
 Raman Active:       NO                     NO                     NO 
               X      Y      Z        X      Y      Z        X      Y      Z
 H          0.000  0.398  0.000    0.000  0.404  0.000    0.089  0.334  0.000
 C          0.000 -0.091  0.000    0.000 -0.060  0.000    0.071 -0.090  0.000
 C          0.000 -0.091  0.000    0.000  0.060  0.000    0.071 -0.090  0.000
 C         -0.079  0.046  0.000    0.052 -0.030  0.000   -0.005  0.099  0.000
 C          0.079  0.046  0.000   -0.052 -0.030  0.000   -0.131 -0.061  0.000
 C         -0.079  0.046  0.000   -0.052  0.030  0.000   -0.005  0.099  0.000
 C          0.079  0.046  0.000    0.052  0.030  0.000   -0.131 -0.061  0.000
 H          0.345 -0.199  0.000   -0.350  0.202  0.000    0.226 -0.008  0.000
 H         -0.345 -0.199  0.000    0.350  0.202  0.000    0.454  0.281  0.000
 H          0.345 -0.199  0.000    0.350 -0.202  0.000    0.226 -0.008  0.000
 H         -0.345 -0.199  0.000   -0.350 -0.202  0.000    0.454  0.281  0.000
 H          0.000  0.398  0.000    0.000 -0.404  0.000    0.089  0.334  0.000
 TransDip   0.000  0.000  0.000    0.000  0.000  0.000    0.086  0.068  0.000

 Mode:                22                     23                     24
 Frequency:      1651.87                1796.96                1796.96
 Force Cnst:      3.1684                 9.5165                 9.5165
 Red. Mass:       1.9708                 5.0021                 5.0021
 IR Active:          YES                    NO                     NO 
 IR Intens:       11.633                  0.000                  0.000
 Raman Active:       NO                     YES                    YES
               X      Y      Z        X      Y      Z        X      Y      Z
 H         -0.070  0.424  0.000   -0.153 -0.187  0.000    0.074 -0.385  0.000
 C         -0.056 -0.114  0.000   -0.130  0.138  0.000    0.063  0.285  0.000
 C         -0.056 -0.114  0.000    0.130 -0.138  0.000   -0.063 -0.285  0.000
 C          0.133 -0.038  0.000    0.279 -0.149  0.000   -0.053 -0.136  0.000
 C         -0.027  0.088  0.000    0.214 -0.015  0.000   -0.186 -0.201  0.000
 C          0.133 -0.038  0.000   -0.279  0.149  0.000    0.053  0.136  0.000
 C         -0.027  0.088  0.000   -0.214  0.015  0.000    0.186  0.201  0.000
 H         -0.413  0.287  0.000   -0.364  0.224  0.000   -0.111 -0.132  0.000
 H         -0.124  0.058  0.000   -0.137 -0.242  0.000    0.355  0.095  0.000
 H         -0.413  0.287  0.000    0.364 -0.224  0.000    0.111  0.132  0.000
 H         -0.124  0.058  0.000    0.137  0.242  0.000   -0.355 -0.095  0.000
 H         -0.070  0.424  0.000    0.153  0.187  0.000   -0.074  0.385  0.000
 TransDip  -0.068  0.086  0.000    0.000  0.000  0.000    0.000  0.000  0.000

 Mode:                25                     26                     27
 Frequency:      3348.99                3359.95                3359.95
 Force Cnst:      7.1699                 7.2478                 7.2478
 Red. Mass:       1.0850                 1.0897                 1.0897
 IR Active:          NO                     NO                     NO 
 IR Intens:        0.000                  0.000                  0.000
 Raman Active:       NO                     YES                    YES
               X      Y      Z        X      Y      Z        X      Y      Z
 H          0.407  0.000  0.000   -0.575  0.000  0.000    0.000  0.004  0.000
 C         -0.034  0.000  0.000    0.050  0.000  0.000    0.000 -0.003  0.000
 C         -0.034  0.000  0.000   -0.050  0.000  0.000    0.000  0.003  0.000
 C          0.017  0.030  0.000   -0.015 -0.020  0.000    0.020  0.038  0.000
 C          0.017 -0.030  0.000   -0.015  0.020  0.000   -0.020  0.038  0.000
 C          0.017  0.030  0.000    0.015  0.020  0.000   -0.020 -0.038  0.000
 C          0.017 -0.030  0.000    0.015 -0.020  0.000    0.020 -0.038  0.000
 H         -0.203 -0.352  0.000    0.146  0.247  0.000   -0.248 -0.432  0.000
 H         -0.203  0.352  0.000    0.147 -0.248  0.000    0.247 -0.432  0.000
 H         -0.203 -0.352  0.000   -0.146 -0.247  0.000    0.248  0.432  0.000
 H         -0.203  0.352  0.000   -0.147  0.248  0.000   -0.247  0.432  0.000
 H          0.407  0.000  0.000    0.575  0.000  0.000    0.000 -0.004  0.000
 TransDip   0.000  0.000  0.000    0.000  0.000  0.000    0.000  0.000  0.000

 Mode:                28                     29                     30
 Frequency:      3378.38                3378.38                3390.23
 Force Cnst:      7.3728                 7.3728                 7.4483
 Red. Mass:       1.0964                 1.0964                 1.0999
 IR Active:          YES                    YES                    NO 
 IR Intens:       62.721                 62.721                  0.000
 Raman Active:       NO                     NO                     YES
               X      Y      Z        X      Y      Z        X      Y      Z
 H          0.575  0.000  0.000    0.002 -0.006  0.000   -0.407  0.000  0.000
 C         -0.052  0.000  0.000    0.000  0.004  0.000    0.037  0.000  0.000
 C         -0.052  0.000  0.000    0.000  0.004  0.000   -0.037  0.000  0.000
 C         -0.010 -0.024  0.000   -0.024 -0.038  0.000    0.019  0.032  0.000
 C         -0.010  0.024  0.000    0.024 -0.038  0.000    0.019 -0.032  0.000
 C         -0.010 -0.024  0.000   -0.024 -0.038  0.000   -0.019 -0.032  0.000
 C         -0.010  0.024  0.000    0.024 -0.038  0.000   -0.019  0.032  0.000
 H          0.139  0.250  0.000    0.252  0.431  0.000   -0.203 -0.352  0.000
 H          0.140 -0.253  0.000   -0.251  0.429  0.000   -0.203  0.352  0.000
 H          0.139  0.250  0.000    0.252  0.431  0.000    0.203  0.352  0.000
 H          0.140 -0.253  0.000   -0.251  0.429  0.000    0.203 -0.352  0.000
 H          0.575  0.000  0.000    0.002 -0.006  0.000    0.407  0.000  0.000
 TransDip  -0.254  0.001  0.000   -0.001 -0.254  0.000    0.000  0.000  0.000

 STANDARD THERMODYNAMIC QUANTITIES AT   298.18 K  AND     1.00 ATM

   This Molecule has  0 Imaginary Frequencies
   Zero point vibrational energy:       67.563 kcal/mol

   Atom    1 Element H  Has Mass    1.00783
   Atom    2 Element C  Has Mass   12.00000
   Atom    3 Element C  Has Mass   12.00000
   Atom    4 Element C  Has Mass   12.00000
   Atom    5 Element C  Has Mass   12.00000
   Atom    6 Element C  Has Mass   12.00000
   Atom    7 Element C  Has Mass   12.00000
   Atom    8 Element H  Has Mass    1.00783
   Atom    9 Element H  Has Mass    1.00783
   Atom   10 Element H  Has Mass    1.00783
   Atom   11 Element H  Has Mass    1.00783
   Atom   12 Element H  Has Mass    1.00783
   Molecular Mass:    78.046980 amu
   Principal axes and moments of inertia in atomic units:
                           1         2         3
    Eigenvalues --    312.49985 312.49985 624.99969
          X             0.94157  -0.33681   0.00000
          Y             0.33681   0.94157   0.00000
          Z             0.00000   0.00000   1.00000
   Rotational Symmetry Number is  12
   The Molecule is a Symmetric Top
   Translational Enthalpy:        0.889 kcal/mol
   Rotational Enthalpy:           0.889 kcal/mol
   Vibrational Enthalpy:         68.356 kcal/mol
   gas constant (RT):             0.593 kcal/mol
   Translational Entropy:        38.980  cal/mol.K
   Rotational Entropy:           20.677  cal/mol.K
   Vibrational Entropy:           3.517  cal/mol.K

   Total Enthalpy:               70.726 kcal/mol
   Total Entropy:                63.174  cal/mol.K
Archival summary:
1\1\node10\FREQ\HF\6-31G*\C6H6\rkanters\19Aug2010\0\\#,FREQ,HF,6-31G*,\\0,1\C\H,1,1.07557\C,1,1.38629,2,120\H,3,1.07557,1,120,2,0,0\C,3,1.38629,1,120,2,-180,0\H,5,1.07557,3,120,1,-180,0\C,1,1.38629,2,120,3,-180,0\H,7,1.07557,1,120,2,0,0\C,7,1.38629,1,120,2,180,0\H,9,1.07557,7,120,1,180,0\C,9,1.38629,7,120,1,0,0\H,11,1.07557,9,120,7,180,0\\HF=-230.703137\\@

 Total job time:  58.42s(wall), 60.94s(cpu) 
 Thu Aug 19 14:38:05 2010

        *************************************************************
        *                                                           *
        *  Thank you very much for using Q-Chem.  Have a nice day.  *
        *                                                           *
        *************************************************************


0 sent ACK to 0 
now end server 0 ... 
