Process 0 of 1 is on node08 - thread support 1
initial socket setup ...start
initial socket setup ...done 
now start server 0 ... 
                  Welcome to Q-Chem
     A Quantum Leap Into The Future Of Chemistry

 Y. Shao, L. Fusti-Molnar, Y. Jung, J. Kussmann, C. Ochsenfeld,
 S. T. Brown, A. T. B. Gilbert, L. V. Slipchenko,S. V. Levchenko,
 D. P. O'Neill, R. A. DiStasio Jr., R. C. Lochan, T. Wang,
 G. J. O. Beran, N. A. Besley, J. M. Herbert, C. Y. Lin,
 T. Van Voorhis, S. H. Chien, A. Sodt, R. P. Steele, 
 V. A. Rassolov, P. E. Maslen, P. P. Korambath, R. D. Adamson,
 B. Austin, J. Baker, E. F. C. Byrd, H. Dachsel, R. J. Doerksen,
 A. Dreuw, B. D. Dunietz, A. D. Dutoi, T. R. Furlani,
 S. R. Gwaltney, A. Heyden, S. Hirata, C.-P. Hsu, G. Kedziora,
 R. Z. Khaliullin, P. Klunzinger, A. M. Lee, M. S. Lee, W. Liang,
 I. Lotan, N. Nair, B. Peters, E. I. Proynov, P. A. Pieniazek, 
 Y. M. Rhee, J. Ritchie, E. Rosta, C. D. Sherrill, 
 A. C. Simmonett, J. E. Subotnik, H. L. Woodcock III,
 W. Zhang, A. T. Bell, A. K. Chakraborty, D. M. Chipman,
 F. J. Keil, A. Warshel, W. J. Hehre, H. F. Schaefer III,
 J. Kong, A. I. Krylov, P. M. W. Gill, M. Head-Gordon,
 Q-Chem, Version 3.1, Q-Chem, Inc., Pittsburgh, PA (2007).

 Additional authors for Version 3.1: 
 Z. Gan, Y. Zhao, N. E. Schultz, D. Truhlar, E. Epifanovsky and M. Oana.

 Additional authors for Version 3.2: 
 R. Baer, B. R. Brooks, D. Casanova, J.-D. Chai, C.-L. Cheng, 
 C. Cramer, D. Crittenden, A. Ghysels, G. Hawkins, E. G. Hohenstein, 
 C. Kelley, W. Kurlancheek, D. Liotard, E. Livshits, P. Manohar, 
 A. Marenich, D. Neuhauser, R. Olson, M. A. Rohrdanz, K. S. Thanthiriwatte, 
 A. J. W. Thom, V. Vanovschi, C. F. Williams, Q. Wu and Z.-Q. You. 


 Intel X86 EM64T Linux Version

 Q-chem begins on Wed Mar  4 17:58:13 2009  

 Parallel job on  1  processors
Processing $rem in /usr/local/qchem3201/config/preferences.

theFileMan(): MAXOPENFILES=974 MAX_SUB_FILE_NUM=16
Maximum size of a physical file is 2.0 GB, maximum size of a tmp-file is 32.0 GB


--------------------------------------------------------------
User input:
--------------------------------------------------------------
$comment
  Benzene+ UB3LYP/6-31G*
$end

$molecule
1 2
 1   0.000000000   0.000000000  -0.019769085
 6   0.000000000   0.000000000   1.066960921
 6   0.000000000  -0.000000000   3.856612746
 6   0.000000000  -1.207954674   1.764373877
 6   0.000000000   1.207954674   1.764373877
 6   0.000000000   1.207954674   3.159199790
 6   0.000000000  -1.207954674   3.159199790
 1   0.000000000  -2.149090467   1.221008874
 1   0.000000000   2.149090467   1.221008874
 1   0.000000000   2.149090467   3.702564793
 1   0.000000000  -2.149090467   3.702564793
 1   0.000000000  -0.000000000   4.943342752
$end

$rem
  jobtype             OPT
  exchange            B3LYP
  basis               6-31G*
  unrestricted        TRUE

  print_general_basis TRUE
  print_orbitals      TRUE
$end

--------------------------------------------------------------
 Writing REM_CC_EA            0
 ----------------------------------------------------
       Standard Nuclear Orientation (Angstroms)
    I     Atom         X            Y            Z
 ----------------------------------------------------
    1      H       2.481556     0.000000     0.000000
    2      C       1.394826     0.000000     0.000000
    3      C      -1.394826     0.000000     0.000000
    4      C       0.697413     1.207955     0.000000
    5      C       0.697413    -1.207955     0.000000
    6      C      -0.697413    -1.207955     0.000000
    7      C      -0.697413     1.207955     0.000000
    8      H       1.240778     2.149090     0.000000
    9      H       1.240778    -2.149090     0.000000
   10      H      -1.240778    -2.149090     0.000000
   11      H      -1.240778     2.149090     0.000000
   12      H      -2.481556     0.000000     0.000000
 ----------------------------------------------------
 Molecular Point Group                 D6h   NOp = 24
 Largest Abelian Subgroup              D2h   NOp =  8
 Nuclear Repulsion Energy =   203.4161024897 hartrees
 There are       21 alpha and       20 beta electrons

 Q-Chem warning in module snoman.F, line  300, PE  0:

 turning symmetry off for DFT job

 Requested basis set is 6-31G(d)
Basis set in general basis input format:
-----------------------------------------------------------------------
$basis
H    0
S    3    1.000000
   1.87311370E+01    3.34946000E-02 
   2.82539370E+00    2.34726950E-01 
   6.40121700E-01    8.13757330E-01 
S    1    1.000000
   1.61277800E-01    1.00000000E+00 
****
C    0
S    6    1.000000
   3.04752490E+03    1.83470000E-03 
   4.57369510E+02    1.40373000E-02 
   1.03948690E+02    6.88426000E-02 
   2.92101550E+01    2.32184400E-01 
   9.28666300E+00    4.67941300E-01 
   3.16392700E+00    3.62312000E-01 
SP   3    1.000000
   7.86827240E+00   -1.19332400E-01   6.89991000E-02 
   1.88128850E+00   -1.60854200E-01   3.16424000E-01 
   5.44249300E-01    1.14345640E+00   7.44308300E-01 
SP   1    1.000000
   1.68714400E-01    1.00000000E+00   1.00000000E+00 
D    1    1.000000
   8.00000000E-01    1.00000000E+00 
****
C    0
S    6    1.000000
   3.04752490E+03    1.83470000E-03 
   4.57369510E+02    1.40373000E-02 
   1.03948690E+02    6.88426000E-02 
   2.92101550E+01    2.32184400E-01 
   9.28666300E+00    4.67941300E-01 
   3.16392700E+00    3.62312000E-01 
SP   3    1.000000
   7.86827240E+00   -1.19332400E-01   6.89991000E-02 
   1.88128850E+00   -1.60854200E-01   3.16424000E-01 
   5.44249300E-01    1.14345640E+00   7.44308300E-01 
SP   1    1.000000
   1.68714400E-01    1.00000000E+00   1.00000000E+00 
D    1    1.000000
   8.00000000E-01    1.00000000E+00 
****
C    0
S    6    1.000000
   3.04752490E+03    1.83470000E-03 
   4.57369510E+02    1.40373000E-02 
   1.03948690E+02    6.88426000E-02 
   2.92101550E+01    2.32184400E-01 
   9.28666300E+00    4.67941300E-01 
   3.16392700E+00    3.62312000E-01 
SP   3    1.000000
   7.86827240E+00   -1.19332400E-01   6.89991000E-02 
   1.88128850E+00   -1.60854200E-01   3.16424000E-01 
   5.44249300E-01    1.14345640E+00   7.44308300E-01 
SP   1    1.000000
   1.68714400E-01    1.00000000E+00   1.00000000E+00 
D    1    1.000000
   8.00000000E-01    1.00000000E+00 
****
C    0
S    6    1.000000
   3.04752490E+03    1.83470000E-03 
   4.57369510E+02    1.40373000E-02 
   1.03948690E+02    6.88426000E-02 
   2.92101550E+01    2.32184400E-01 
   9.28666300E+00    4.67941300E-01 
   3.16392700E+00    3.62312000E-01 
SP   3    1.000000
   7.86827240E+00   -1.19332400E-01   6.89991000E-02 
   1.88128850E+00   -1.60854200E-01   3.16424000E-01 
   5.44249300E-01    1.14345640E+00   7.44308300E-01 
SP   1    1.000000
   1.68714400E-01    1.00000000E+00   1.00000000E+00 
D    1    1.000000
   8.00000000E-01    1.00000000E+00 
****
C    0
S    6    1.000000
   3.04752490E+03    1.83470000E-03 
   4.57369510E+02    1.40373000E-02 
   1.03948690E+02    6.88426000E-02 
   2.92101550E+01    2.32184400E-01 
   9.28666300E+00    4.67941300E-01 
   3.16392700E+00    3.62312000E-01 
SP   3    1.000000
   7.86827240E+00   -1.19332400E-01   6.89991000E-02 
   1.88128850E+00   -1.60854200E-01   3.16424000E-01 
   5.44249300E-01    1.14345640E+00   7.44308300E-01 
SP   1    1.000000
   1.68714400E-01    1.00000000E+00   1.00000000E+00 
D    1    1.000000
   8.00000000E-01    1.00000000E+00 
****
C    0
S    6    1.000000
   3.04752490E+03    1.83470000E-03 
   4.57369510E+02    1.40373000E-02 
   1.03948690E+02    6.88426000E-02 
   2.92101550E+01    2.32184400E-01 
   9.28666300E+00    4.67941300E-01 
   3.16392700E+00    3.62312000E-01 
SP   3    1.000000
   7.86827240E+00   -1.19332400E-01   6.89991000E-02 
   1.88128850E+00   -1.60854200E-01   3.16424000E-01 
   5.44249300E-01    1.14345640E+00   7.44308300E-01 
SP   1    1.000000
   1.68714400E-01    1.00000000E+00   1.00000000E+00 
D    1    1.000000
   8.00000000E-01    1.00000000E+00 
****
H    0
S    3    1.000000
   1.87311370E+01    3.34946000E-02 
   2.82539370E+00    2.34726950E-01 
   6.40121700E-01    8.13757330E-01 
S    1    1.000000
   1.61277800E-01    1.00000000E+00 
****
H    0
S    3    1.000000
   1.87311370E+01    3.34946000E-02 
   2.82539370E+00    2.34726950E-01 
   6.40121700E-01    8.13757330E-01 
S    1    1.000000
   1.61277800E-01    1.00000000E+00 
****
H    0
S    3    1.000000
   1.87311370E+01    3.34946000E-02 
   2.82539370E+00    2.34726950E-01 
   6.40121700E-01    8.13757330E-01 
S    1    1.000000
   1.61277800E-01    1.00000000E+00 
****
H    0
S    3    1.000000
   1.87311370E+01    3.34946000E-02 
   2.82539370E+00    2.34726950E-01 
   6.40121700E-01    8.13757330E-01 
S    1    1.000000
   1.61277800E-01    1.00000000E+00 
****
H    0
S    3    1.000000
   1.87311370E+01    3.34946000E-02 
   2.82539370E+00    2.34726950E-01 
   6.40121700E-01    8.13757330E-01 
S    1    1.000000
   1.61277800E-01    1.00000000E+00 
****
$end
-----------------------------------------------------------------------
 There are 36 shells and 102 basis functions

Total QAlloc Memory Limit   2000 MB
Mega-Array Size        61 MB
MEM_STATIC part        62 MB
 A cutoff of  1.0D-11 yielded    648 shell pairs
 There are   5397 function pairs
Evaluating contribution to one-electron hamiltonian from nuclear
 Smallest overlap matrix eigenvalue = 5.15E-04
 Multipole matrices computed through 2nd order

  Scale SEOQF with 1.000000e-01/1.000000e-01/1.000000e+00

 Standard Electronic Orientation quadrupole field applied
 Nucleus-field energy     =     0.0000000057 hartrees
 Guess from superposition of atomic densities
 Warning:  Energy on first SCF cycle will be non-variational
 An unrestricted hybrid HF-DFT SCF calculation will be
 performed using Pulay DIIS extrapolation
 Exchange:     0.2000 Hartree-Fock + 0.0800 Slater + 0.7200 Becke
 Correlation:  0.8100 LYP + 0.1900 VWN1RPA
 Using SG-1 standard quadrature grid
 SCF converges when DIIS error is below 1.0E-08
 Warning!  Inaccurate integrated density:
   Number of electrons =    41
   Numerical integral  =    42.001323286279
   Relative error      =     2.4422519178 %
 ---------------------------------------
  Cycle       Energy         DIIS Error
 ---------------------------------------
    1    -233.5222855428      7.91E-02
    2    -231.8859645739      4.61E-03
    3    -231.8912980761      4.32E-03
    4    -231.9163218447      7.80E-04
    5    -231.9171021779      2.57E-04
    6    -231.9172280005      5.24E-05
    7    -231.9172460346      2.59E-06
    8    -231.9172509618      1.15E-06
    9    -231.9172520042      9.79E-08
   10    -231.9172520131      1.34E-08
   11    -231.9172520130      3.33E-09 Convergence criterion met
 ---------------------------------------
 <S^2> = 0.7655
 SCF time:  CPU 43.91 s  wall 32.67 s
 Analysis of SCF Wavefunction
 
 --------------------------------------------------------------
             Orbital Energies (a.u.) and Symmetries
 --------------------------------------------------------------
 Warning : Irrep of orbital(   1) could not be determined
 Warning : Irrep of orbital(   2) could not be determined
 Warning : Irrep of orbital(   3) could not be determined
 Warning : Irrep of orbital(   4) could not be determined
 Warning : Irrep of orbital(   5) could not be determined
 Warning : Irrep of orbital(   6) could not be determined
 Warning : Irrep of orbital(  10) could not be determined
 Warning : Irrep of orbital(  11) could not be determined
 Warning : Irrep of orbital(  12) could not be determined
 Warning : Irrep of orbital(  13) could not be determined
 Warning : Irrep of orbital(  14) could not be determined
 Warning : Irrep of orbital(  15) could not be determined
 Warning : Irrep of orbital(  16) could not be determined
 Warning : Irrep of orbital(  26) could not be determined
 Warning : Irrep of orbital(  27) could not be determined
 Warning : Irrep of orbital(  30) could not be determined
 Warning : Irrep of orbital(  36) could not be determined
 Warning : Irrep of orbital(  38) could not be determined
 Warning : Irrep of orbital(  39) could not be determined
 Warning : Irrep of orbital(  40) could not be determined
 Warning : Irrep of orbital(  41) could not be determined
 Warning : Irrep of orbital(  42) could not be determined
 Warning : Irrep of orbital(  43) could not be determined
 Warning : Irrep of orbital(  44) could not be determined
 Warning : Irrep of orbital(  45) could not be determined
 Warning : Irrep of orbital(  46) could not be determined
 Warning : Irrep of orbital(  47) could not be determined
 Warning : Irrep of orbital(  48) could not be determined
 Warning : Irrep of orbital(  49) could not be determined
 Warning : Irrep of orbital(  50) could not be determined
 Warning : Irrep of orbital(  51) could not be determined
 Warning : Irrep of orbital(  52) could not be determined
 Warning : Irrep of orbital(  53) could not be determined
 Warning : Irrep of orbital(  54) could not be determined
 Warning : Irrep of orbital(  57) could not be determined
 Warning : Irrep of orbital(  65) could not be determined
 Warning : Irrep of orbital(  68) could not be determined
 Warning : Irrep of orbital(  69) could not be determined
 Warning : Irrep of orbital(  80) could not be determined
 Warning : Irrep of orbital(  81) could not be determined
 Warning : Irrep of orbital(  82) could not be determined
 Warning : Irrep of orbital(  83) could not be determined
 Warning : Irrep of orbital(  84) could not be determined
 Warning : Irrep of orbital(  85) could not be determined
 Warning : Irrep of orbital(  86) could not be determined
 
 Alpha MOs, Unrestricted
 -- Occupied --                  
-10.446 -10.446 -10.446 -10.446 -10.412 -10.412  -1.100  -0.998
  0 xxx   0 xxx   0 xxx   0 xxx   0 xxx   0 xxx   1 A1g   1 E1u                
 -0.974  -0.835  -0.835  -0.748  -0.684  -0.681  -0.656  -0.639
  1 E1u   0 xxx   0 xxx   0 xxx   0 xxx   0 xxx   0 xxx   0 xxx                
 -0.611  -0.571  -0.569  -0.512  -0.479
  1 A2u   1 E2g   1 E2g   1 E1g   1 E1g                                        
 -- Virtual --                   
 -0.252  -0.226  -0.102  -0.076  -0.049  -0.039  -0.015  -0.006
  1 E2u   1 E2u   2 A1g   1 B2g   0 xxx   0 xxx   2 E2g   2 E2g                
  0.008   0.085   0.089   0.096   0.100   0.259   0.294   0.313
  0 xxx   3 E2g   3 E2g   2 E1u   2 E1u   1 B2u   0 xxx   3 A1g                
  0.319   0.344   0.365   0.369   0.376   0.382   0.385   0.396
  0 xxx   0 xxx   0 xxx   0 xxx   0 xxx   0 xxx   0 xxx   0 xxx                
  0.405   0.436   0.454   0.529   0.627   0.627   0.637   0.653
  0 xxx   0 xxx   0 xxx   0 xxx   0 xxx   0 xxx   0 xxx   0 xxx                
  0.667   0.719   0.719   0.731   0.744   0.859   0.872   0.914
  0 xxx   3 E1u   3 E1u   0 xxx   1 A2g   4 E2g   4 E2g   4 E1u                
  0.922   0.988   1.008   1.145   1.216   1.219   1.231   1.243
  4 E1u   1 B1u   1 B1g   0 xxx   5 E2g   5 E2g   0 xxx   0 xxx                
  1.254   1.277   1.507   1.551   1.622   1.679   1.729   1.746
  2 E1g   2 E1g   4 A1g   2 B2u   5 A1g   2 B1u   5 E1u   5 E1u                
  1.822   1.827   1.896   1.898   1.911   1.921   2.049   2.070
  6 E2g   6 E2g   0 xxx   0 xxx   0 xxx   0 xxx   0 xxx   0 xxx                
  2.076   2.295   2.312   2.410   2.462   2.473   2.477   2.489
  0 xxx   7 E2g   7 E2g   1 A1u   8 E2g   8 E2g   6 E1u   6 E1u                
  2.521   2.780   3.176   3.840   3.863   3.885   4.079   4.098
  3 B1u   2 A2g   4 B1u   6 A1g   7 E1u   7 E1u   9 E2g   9 E2g                
  4.427
  5 B1u                                                                        
 Warning : Irrep of orbital(   1) could not be determined
 Warning : Irrep of orbital(   2) could not be determined
 Warning : Irrep of orbital(   3) could not be determined
 Warning : Irrep of orbital(   4) could not be determined
 Warning : Irrep of orbital(   5) could not be determined
 Warning : Irrep of orbital(   6) could not be determined
 Warning : Irrep of orbital(  14) could not be determined
 Warning : Irrep of orbital(  15) could not be determined
 Warning : Irrep of orbital(  16) could not be determined
 Warning : Irrep of orbital(  26) could not be determined
 Warning : Irrep of orbital(  27) could not be determined
 Warning : Irrep of orbital(  30) could not be determined
 Warning : Irrep of orbital(  39) could not be determined
 Warning : Irrep of orbital(  40) could not be determined
 Warning : Irrep of orbital(  41) could not be determined
 Warning : Irrep of orbital(  42) could not be determined
 Warning : Irrep of orbital(  50) could not be determined
 Warning : Irrep of orbital(  51) could not be determined
 Warning : Irrep of orbital(  52) could not be determined
 Warning : Irrep of orbital(  53) could not be determined
 Warning : Irrep of orbital(  54) could not be determined
 Warning : Irrep of orbital(  57) could not be determined
 
 Beta MOs, Unrestricted
 -- Occupied --                  
-10.442 -10.442 -10.441 -10.441 -10.413 -10.413  -1.088  -0.978
  0 xxx   0 xxx   0 xxx   0 xxx   0 xxx   0 xxx   1 A1g   1 E1u                
 -0.972  -0.829  -0.826  -0.746  -0.679  -0.677  -0.651  -0.638
  1 E1u   1 E2g   1 E2g   2 A1g   1 B2u   0 xxx   0 xxx   0 xxx                
 -0.577  -0.569  -0.566  -0.473
  1 A2u   2 E2g   2 E2g   1 E1g                                                
 -- Virtual --                   
 -0.416  -0.214  -0.211  -0.100  -0.053  -0.047  -0.039  -0.008
  1 E1g   1 E2u   1 E2u   3 A1g   1 B2g   0 xxx   0 xxx   3 E2g                
 -0.005   0.012   0.090   0.091   0.100   0.103   0.261   0.309
  3 E2g   0 xxx   4 E2g   4 E2g   2 E1u   2 E1u   2 B2u   2 A2u                
  0.316   0.331   0.347   0.376   0.383   0.384   0.389   0.389
  4 A1g   1 B1u   0 xxx   0 xxx   0 xxx   0 xxx   2 E1g   2 E1g                
  0.407   0.407   0.457   0.457   0.539   0.629   0.630   0.638
  3 E1u   3 E1u   2 E2u   2 E2u   2 B2g   0 xxx   0 xxx   0 xxx                
  0.657   0.667   0.721   0.726   0.733   0.746   0.868   0.874
  0 xxx   0 xxx   4 E1u   4 E1u   0 xxx   1 A2g   5 E2g   5 E2g                
  0.920   0.923   0.992   1.024   1.159   1.220   1.224   1.250
  5 E1u   5 E1u   2 B1u   1 B1g   3 A2u   6 E2g   6 E2g   3 E2u                
  1.252   1.277   1.282   1.526   1.553   1.624   1.685   1.738
  3 E2u   3 E1g   3 E1g   5 A1g   3 B2u   6 A1g   3 B1u   6 E1u                
  1.747   1.827   1.835   1.916   1.918   1.923   1.924   2.073
  6 E1u   7 E2g   7 E2g   4 E2u   4 E2u   7 E1u   7 E1u   4 E1g                
  2.077   2.089   2.315   2.316   2.425   2.467   2.474   2.482
  4 E1g   3 B2g   8 E2g   8 E2g   1 A1u   9 E2g   9 E2g   8 E1u                
  2.491   2.535   2.783   3.179   3.848   3.875   3.887   4.091
  8 E1u   4 B1u   2 A2g   5 B1u   7 A1g   9 E1u   9 E1u  10 E2g                
  4.100   4.433
 10 E2g   6 B1u                                                                
 --------------------------------------------------------------
 

                        ALPHA MOLECULAR ORBITAL COEFFICIENTS
                         1         2         3         4         5         6
 eigenvalues:        -10.446   -10.446   -10.446   -10.446   -10.412   -10.412
   1  H 1   s        0.00000  -0.00001  -0.00012   0.00000  -0.00037  -0.00027
   2  H 1   s        0.00001   0.00048  -0.00135   0.00000   0.00002   0.00088
   3  C 1   s        0.00008   0.00779  -0.00791   0.00003   0.70312   0.70087
   4  C 1   s        0.00000  -0.00018   0.00038   0.00000   0.03540   0.03492
   5  C 1   px       0.00000   0.00025  -0.00017   0.00000  -0.00044  -0.00038
   6  C 1   py       0.00026   0.00000   0.00000  -0.00019   0.00000   0.00000
   7  C 1   pz       0.00000   0.00000   0.00000   0.00000   0.00000   0.00000
   8  C 1   s        0.00005   0.00465  -0.01338   0.00004  -0.01663  -0.01090
   9  C 1   px      -0.00002  -0.00198   0.00686  -0.00002   0.00556   0.00208
  10  C 1   py      -0.00146   0.00002   0.00000   0.00141   0.00000   0.00000
  11  C 1   pz       0.00000   0.00000   0.00000   0.00000   0.00000   0.00000
  12  C 1   dxx      0.00000  -0.00024   0.00037   0.00000  -0.00652  -0.00653
  13  C 1   dxy     -0.00003   0.00000   0.00000   0.00010   0.00000   0.00000
  14  C 1   dyy      0.00000  -0.00041   0.00052   0.00000  -0.00640  -0.00636
  15  C 1   dxz      0.00000   0.00000   0.00000   0.00000   0.00000   0.00000
  16  C 1   dyz      0.00000   0.00000   0.00000   0.00000   0.00000   0.00000
  17  C 1   dzz      0.00000  -0.00027   0.00033   0.00000  -0.00668  -0.00680
  18  C 2   s        0.00008   0.00779   0.00791  -0.00002  -0.70094   0.70305
  19  C 2   s        0.00000  -0.00018  -0.00038   0.00000  -0.03530   0.03503
  20  C 2   px       0.00000  -0.00025  -0.00017   0.00000  -0.00044   0.00038
  21  C 2   py       0.00026   0.00000   0.00000   0.00019   0.00000   0.00000
  22  C 2   pz       0.00000   0.00000   0.00000   0.00000   0.00000   0.00000
  23  C 2   s        0.00005   0.00465   0.01338  -0.00004   0.01660  -0.01095
  24  C 2   px       0.00002   0.00198   0.00686  -0.00002   0.00556  -0.00210
  25  C 2   py      -0.00146   0.00002   0.00000  -0.00141   0.00000   0.00000
  26  C 2   pz       0.00000   0.00000   0.00000   0.00000   0.00000   0.00000
  27  C 2   dxx      0.00000  -0.00024  -0.00037   0.00000   0.00650  -0.00655
  28  C 2   dxy      0.00003   0.00000   0.00000   0.00010   0.00000   0.00000
  29  C 2   dyy      0.00000  -0.00041  -0.00052   0.00000   0.00638  -0.00638
  30  C 2   dxz      0.00000   0.00000   0.00000   0.00000   0.00000   0.00000
  31  C 2   dyz      0.00000   0.00000   0.00000   0.00000   0.00000   0.00000
  32  C 2   dzz      0.00000  -0.00027  -0.00033   0.00000   0.00665  -0.00682
  33  C 3   s       -0.49099   0.50141  -0.49492   0.49801  -0.00599  -0.00580
  34  C 3   s       -0.02471   0.02508  -0.02565   0.02542  -0.00083  -0.00067
  35  C 3   px       0.00005  -0.00005   0.00043  -0.00039  -0.00012  -0.00005
  36  C 3   py       0.00018  -0.00009   0.00019  -0.00020   0.00024   0.00026
  37  C 3   pz       0.00000   0.00000   0.00000   0.00000   0.00000   0.00000
  38  C 3   s        0.00490  -0.00547   0.01854  -0.01012   0.00972   0.00333
  39  C 3   px       0.00034  -0.00029  -0.00438   0.00188  -0.00157   0.00024
  40  C 3   py      -0.00077   0.00088  -0.00592   0.00162  -0.00469  -0.00162
  41  C 3   pz       0.00000   0.00000   0.00000   0.00000   0.00000   0.00000
  42  C 3   dxx      0.00493  -0.00501   0.00444  -0.00447  -0.00025  -0.00012
  43  C 3   dxy     -0.00001  -0.00002   0.00006  -0.00007   0.00010   0.00014
  44  C 3   dyy      0.00488  -0.00491   0.00461  -0.00473  -0.00025  -0.00020
  45  C 3   dxz      0.00000   0.00000   0.00000   0.00000   0.00000   0.00000
  46  C 3   dyz      0.00000   0.00000   0.00000   0.00000   0.00000   0.00000
  47  C 3   dzz      0.00481  -0.00499   0.00460  -0.00477  -0.00012  -0.00007
  48  C 4   s        0.50151   0.49098  -0.49802  -0.49482  -0.00599  -0.00580
  49  C 4   s        0.02524   0.02455  -0.02581  -0.02526  -0.00083  -0.00067
  50  C 4   px      -0.00005  -0.00005   0.00043   0.00039  -0.00012  -0.00005
  51  C 4   py       0.00018   0.00008  -0.00019  -0.00020  -0.00024  -0.00026
  52  C 4   pz       0.00000   0.00000   0.00000   0.00000   0.00000   0.00000
  53  C 4   s       -0.00502  -0.00537   0.01860   0.01000   0.00972   0.00333
  54  C 4   px      -0.00034  -0.00028  -0.00439  -0.00185  -0.00157   0.00024
  55  C 4   py      -0.00079  -0.00086   0.00593   0.00158   0.00469   0.00162
  56  C 4   pz       0.00000   0.00000   0.00000   0.00000   0.00000   0.00000
  57  C 4   dxx     -0.00503  -0.00490   0.00447   0.00445  -0.00025  -0.00012
  58  C 4   dxy      0.00000   0.00002  -0.00006  -0.00007  -0.00010  -0.00014
  59  C 4   dyy     -0.00498  -0.00481   0.00464   0.00470  -0.00025  -0.00020
  60  C 4   dxz      0.00000   0.00000   0.00000   0.00000   0.00000   0.00000
  61  C 4   dyz      0.00000   0.00000   0.00000   0.00000   0.00000   0.00000
  62  C 4   dzz     -0.00492  -0.00488   0.00463   0.00474  -0.00012  -0.00007
  63  C 5   s        0.50141   0.49089   0.49811   0.49491   0.00597  -0.00581
  64  C 5   s        0.02523   0.02455   0.02581   0.02526   0.00083  -0.00067
  65  C 5   px       0.00005   0.00005   0.00043   0.00039  -0.00012   0.00005
  66  C 5   py       0.00018   0.00008   0.00019   0.00020   0.00024  -0.00026
  67  C 5   pz       0.00000   0.00000   0.00000   0.00000   0.00000   0.00000
  68  C 5   s       -0.00501  -0.00537  -0.01860  -0.01000  -0.00971   0.00336
  69  C 5   px       0.00035   0.00028  -0.00439  -0.00185  -0.00157  -0.00023
  70  C 5   py      -0.00079  -0.00086  -0.00593  -0.00158  -0.00469   0.00163
  71  C 5   pz       0.00000   0.00000   0.00000   0.00000   0.00000   0.00000
  72  C 5   dxx     -0.00503  -0.00490  -0.00447  -0.00445   0.00025  -0.00012
  73  C 5   dxy      0.00000  -0.00002  -0.00006  -0.00007  -0.00010   0.00014
  74  C 5   dyy     -0.00498  -0.00481  -0.00464  -0.00470   0.00025  -0.00020
  75  C 5   dxz      0.00000   0.00000   0.00000   0.00000   0.00000   0.00000
  76  C 5   dyz      0.00000   0.00000   0.00000   0.00000   0.00000   0.00000
  77  C 5   dzz     -0.00492  -0.00488  -0.00463  -0.00474   0.00012  -0.00007
  78  C 6   s       -0.49099   0.50141   0.49492  -0.49801   0.00597  -0.00581
  79  C 6   s       -0.02471   0.02508   0.02565  -0.02542   0.00083  -0.00067
  80  C 6   px      -0.00005   0.00005   0.00043  -0.00039  -0.00012   0.00005
  81  C 6   py       0.00018  -0.00009  -0.00019   0.00020  -0.00024   0.00026
  82  C 6   pz       0.00000   0.00000   0.00000   0.00000   0.00000   0.00000
  83  C 6   s        0.00490  -0.00547  -0.01854   0.01012  -0.00971   0.00336
  84  C 6   px      -0.00034   0.00029  -0.00438   0.00188  -0.00157  -0.00023
  85  C 6   py      -0.00078   0.00088   0.00592  -0.00162   0.00469  -0.00163
  86  C 6   pz       0.00000   0.00000   0.00000   0.00000   0.00000   0.00000
  87  C 6   dxx      0.00493  -0.00501  -0.00444   0.00447   0.00025  -0.00012
  88  C 6   dxy      0.00001   0.00002   0.00006  -0.00007   0.00010  -0.00014
  89  C 6   dyy      0.00488  -0.00491  -0.00461   0.00473   0.00025  -0.00020
  90  C 6   dxz      0.00000   0.00000   0.00000   0.00000   0.00000   0.00000
  91  C 6   dyz      0.00000   0.00000   0.00000   0.00000   0.00000   0.00000
  92  C 6   dzz      0.00481  -0.00499  -0.00460   0.00477   0.00012  -0.00007
  93  H 2   s        0.00019  -0.00020   0.00030  -0.00016   0.00008  -0.00001
  94  H 2   s       -0.00066   0.00082   0.00065   0.00044   0.00092   0.00027
  95  H 3   s       -0.00019  -0.00019   0.00030   0.00016   0.00008  -0.00001
  96  H 3   s        0.00068   0.00080   0.00064  -0.00044   0.00092   0.00027
  97  H 4   s       -0.00019  -0.00019  -0.00030  -0.00016  -0.00008  -0.00001
  98  H 4   s        0.00068   0.00080  -0.00064   0.00044  -0.00092   0.00028
  99  H 5   s        0.00019  -0.00020  -0.00030   0.00016  -0.00008  -0.00001
 100  H 5   s       -0.00066   0.00082  -0.00065  -0.00044  -0.00092   0.00028
 101  H 6   s        0.00000  -0.00001   0.00012   0.00000   0.00037  -0.00027
 102  H 6   s        0.00001   0.00048   0.00135   0.00000  -0.00002   0.00088
                         7         8         9        10        11        12
 eigenvalues:         -1.100    -0.998    -0.974    -0.835    -0.835    -0.748
   1  H 1   s        0.02797   0.00000   0.06807   0.00000   0.09482   0.10657
   2  H 1   s        0.00003   0.00000   0.00400   0.00000   0.01790   0.04409
   3  C 1   s       -0.08708   0.00000  -0.12884   0.00000  -0.10644  -0.02119
   4  C 1   s        0.16675   0.00000   0.25565   0.00000   0.21871   0.04518
   5  C 1   px      -0.06632   0.00000  -0.03566   0.00000   0.03727   0.19120
   6  C 1   py       0.00000  -0.10755   0.00000   0.20666   0.00000   0.00000
   7  C 1   pz       0.00000   0.00000   0.00000   0.00000   0.00000   0.00000
   8  C 1   s        0.09010   0.00000   0.17727   0.00000   0.17533   0.06762
   9  C 1   px      -0.00564   0.00000   0.00904   0.00000   0.03825   0.06739
  10  C 1   py       0.00000  -0.00863   0.00000   0.04341   0.00000   0.00000
  11  C 1   pz       0.00000   0.00000   0.00000   0.00000   0.00000   0.00000
  12  C 1   dxx      0.00361   0.00000   0.00125   0.00000   0.00222  -0.00132
  13  C 1   dxy      0.00000   0.01126   0.00000  -0.01042   0.00000   0.00000
  14  C 1   dyy      0.00368   0.00000   0.00357   0.00000  -0.00605   0.00444
  15  C 1   dxz      0.00000   0.00000   0.00000   0.00000   0.00000   0.00000
  16  C 1   dyz      0.00000   0.00000   0.00000   0.00000   0.00000   0.00000
  17  C 1   dzz     -0.01016   0.00000  -0.01273   0.00000  -0.00913  -0.00091
  18  C 2   s       -0.08708   0.00000   0.12884   0.00000  -0.10644  -0.02119
  19  C 2   s        0.16675   0.00000  -0.25565   0.00000   0.21871   0.04518
  20  C 2   px       0.06632   0.00000  -0.03566   0.00000  -0.03727  -0.19120
  21  C 2   py       0.00000  -0.10755   0.00000  -0.20666   0.00000   0.00000
  22  C 2   pz       0.00000   0.00000   0.00000   0.00000   0.00000   0.00000
  23  C 2   s        0.09010   0.00000  -0.17727   0.00000   0.17533   0.06762
  24  C 2   px       0.00564   0.00000   0.00904   0.00000  -0.03825  -0.06739
  25  C 2   py       0.00000  -0.00863   0.00000  -0.04341   0.00000   0.00000
  26  C 2   pz       0.00000   0.00000   0.00000   0.00000   0.00000   0.00000
  27  C 2   dxx      0.00361   0.00000  -0.00125   0.00000   0.00222  -0.00132
  28  C 2   dxy      0.00000  -0.01126   0.00000  -0.01042   0.00000   0.00000
  29  C 2   dyy      0.00368   0.00000  -0.00357   0.00000  -0.00605   0.00444
  30  C 2   dxz      0.00000   0.00000   0.00000   0.00000   0.00000   0.00000
  31  C 2   dyz      0.00000   0.00000   0.00000   0.00000   0.00000   0.00000
  32  C 2   dzz     -0.01016   0.00000   0.01273   0.00000  -0.00913  -0.00091
  33  C 3   s       -0.09708   0.11471  -0.06893  -0.09144   0.04747  -0.01002
  34  C 3   s        0.18927  -0.23116   0.13905   0.19323  -0.10083   0.02157
  35  C 3   px      -0.04203   0.07342   0.08336   0.12145   0.14797   0.12430
  36  C 3   py      -0.05307  -0.00876  -0.06430  -0.00289  -0.13971   0.16869
  37  C 3   pz       0.00000   0.00000   0.00000   0.00000   0.00000   0.00000
  38  C 3   s        0.12020  -0.17298   0.11899   0.17089  -0.08554   0.04162
  39  C 3   px      -0.00662   0.00561   0.00829   0.03961   0.02617   0.04295
  40  C 3   py      -0.00987  -0.00732  -0.00858   0.02649  -0.04967   0.06593
  41  C 3   pz       0.00000   0.00000   0.00000   0.00000   0.00000   0.00000
  42  C 3   dxx      0.00297  -0.00606  -0.00745  -0.00916  -0.00499   0.00166
  43  C 3   dxy      0.00054  -0.00199  -0.00497   0.00178  -0.00579  -0.00316
  44  C 3   dyy      0.00182   0.00454   0.00796   0.00357   0.00795   0.00213
  45  C 3   dxz      0.00000   0.00000   0.00000   0.00000   0.00000   0.00000
  46  C 3   dyz      0.00000   0.00000   0.00000   0.00000   0.00000   0.00000
  47  C 3   dzz     -0.00899   0.00869  -0.00523  -0.00528   0.00246   0.00018
  48  C 4   s       -0.09708  -0.11471  -0.06893   0.09145   0.04747  -0.01002
  49  C 4   s        0.18927   0.23116   0.13905  -0.19324  -0.10082   0.02157
  50  C 4   px      -0.04203  -0.07342   0.08336  -0.12144   0.14797   0.12430
  51  C 4   py       0.05307  -0.00876   0.06430  -0.00289   0.13971  -0.16869
  52  C 4   pz       0.00000   0.00000   0.00000   0.00000   0.00000   0.00000
  53  C 4   s        0.12020   0.17298   0.11899  -0.17089  -0.08553   0.04162
  54  C 4   px      -0.00662  -0.00561   0.00829  -0.03960   0.02617   0.04295
  55  C 4   py       0.00987  -0.00732   0.00858   0.02649   0.04966  -0.06593
  56  C 4   pz       0.00000   0.00000   0.00000   0.00000   0.00000   0.00000
  57  C 4   dxx      0.00297   0.00606  -0.00745   0.00916  -0.00499   0.00166
  58  C 4   dxy     -0.00054  -0.00199   0.00497   0.00178   0.00579   0.00316
  59  C 4   dyy      0.00182  -0.00454   0.00796  -0.00357   0.00795   0.00213
  60  C 4   dxz      0.00000   0.00000   0.00000   0.00000   0.00000   0.00000
  61  C 4   dyz      0.00000   0.00000   0.00000   0.00000   0.00000   0.00000
  62  C 4   dzz     -0.00899  -0.00869  -0.00523   0.00528   0.00246   0.00018
  63  C 5   s       -0.09708  -0.11471   0.06893  -0.09144   0.04747  -0.01002
  64  C 5   s        0.18927   0.23116  -0.13905   0.19323  -0.10083   0.02157
  65  C 5   px       0.04203   0.07342   0.08336  -0.12145  -0.14797  -0.12430
  66  C 5   py       0.05307  -0.00876  -0.06430   0.00289   0.13971  -0.16869
  67  C 5   pz       0.00000   0.00000   0.00000   0.00000   0.00000   0.00000
  68  C 5   s        0.12020   0.17298  -0.11899   0.17089  -0.08554   0.04162
  69  C 5   px       0.00662   0.00561   0.00829  -0.03961  -0.02617  -0.04295
  70  C 5   py       0.00987  -0.00732  -0.00858  -0.02649   0.04967  -0.06593
  71  C 5   pz       0.00000   0.00000   0.00000   0.00000   0.00000   0.00000
  72  C 5   dxx      0.00297   0.00606   0.00745  -0.00916  -0.00499   0.00166
  73  C 5   dxy      0.00054   0.00199   0.00497   0.00178  -0.00579  -0.00316
  74  C 5   dyy      0.00182  -0.00454  -0.00796   0.00357   0.00795   0.00213
  75  C 5   dxz      0.00000   0.00000   0.00000   0.00000   0.00000   0.00000
  76  C 5   dyz      0.00000   0.00000   0.00000   0.00000   0.00000   0.00000
  77  C 5   dzz     -0.00899  -0.00869   0.00523  -0.00528   0.00246   0.00018
  78  C 6   s       -0.09708   0.11471   0.06893   0.09145   0.04747  -0.01002
  79  C 6   s        0.18927  -0.23116  -0.13905  -0.19324  -0.10082   0.02157
  80  C 6   px       0.04203  -0.07342   0.08336   0.12144  -0.14797  -0.12430
  81  C 6   py      -0.05307  -0.00876   0.06430   0.00289  -0.13971   0.16869
  82  C 6   pz       0.00000   0.00000   0.00000   0.00000   0.00000   0.00000
  83  C 6   s        0.12020  -0.17298  -0.11899  -0.17089  -0.08553   0.04162
  84  C 6   px       0.00662  -0.00561   0.00829   0.03960  -0.02617  -0.04295
  85  C 6   py      -0.00987  -0.00732   0.00858  -0.02649  -0.04966   0.06593
  86  C 6   pz       0.00000   0.00000   0.00000   0.00000   0.00000   0.00000
  87  C 6   dxx      0.00297  -0.00606   0.00745   0.00916  -0.00499   0.00166
  88  C 6   dxy     -0.00054   0.00199  -0.00497   0.00178   0.00579   0.00316
  89  C 6   dyy      0.00182   0.00454  -0.00796  -0.00357   0.00795   0.00213
  90  C 6   dxz      0.00000   0.00000   0.00000   0.00000   0.00000   0.00000
  91  C 6   dyz      0.00000   0.00000   0.00000   0.00000   0.00000   0.00000
  92  C 6   dzz     -0.00899   0.00869   0.00523   0.00528   0.00246   0.00018
  93  H 2   s        0.03351  -0.06018   0.03873   0.09329  -0.05467   0.10580
  94  H 2   s        0.00113  -0.00224   0.00424   0.01705  -0.00920   0.04317
  95  H 3   s        0.03351   0.06018   0.03873  -0.09329  -0.05467   0.10580
  96  H 3   s        0.00113   0.00224   0.00424  -0.01705  -0.00920   0.04317
  97  H 4   s        0.03351   0.06018  -0.03873   0.09329  -0.05467   0.10580
  98  H 4   s        0.00113   0.00224  -0.00424   0.01705  -0.00920   0.04317
  99  H 5   s        0.03351  -0.06018  -0.03873  -0.09329  -0.05467   0.10580
 100  H 5   s        0.00113  -0.00224  -0.00424  -0.01705  -0.00920   0.04317
 101  H 6   s        0.02797   0.00000  -0.06807   0.00000   0.09482   0.10657
 102  H 6   s        0.00003   0.00000  -0.00400   0.00000   0.01790   0.04409
                        13        14        15        16        17        18
 eigenvalues:         -0.684    -0.681    -0.656    -0.639    -0.611    -0.571
   1  H 1   s        0.00000  -0.10655   0.00000   0.19016   0.00000   0.00000
   2  H 1   s        0.00000  -0.05122   0.00000   0.13064   0.00000   0.00000
   3  C 1   s        0.00000   0.06655   0.00000   0.00269   0.00000   0.00000
   4  C 1   s        0.00000  -0.13853   0.00000  -0.01107   0.00000   0.00000
   5  C 1   px       0.00000  -0.07406   0.00000   0.33254   0.00000   0.00000
   6  C 1   py       0.26493   0.00000  -0.10452   0.00000   0.00000  -0.25985
   7  C 1   pz       0.00000   0.00000   0.00000   0.00000   0.20022   0.00000
   8  C 1   s        0.00000  -0.17713   0.00000  -0.00978   0.00000   0.00000
   9  C 1   px       0.00000  -0.02862   0.00000   0.11491   0.00000   0.00000
  10  C 1   py       0.07691   0.00000   0.01007   0.00000   0.00000  -0.08578
  11  C 1   pz       0.00000   0.00000   0.00000   0.00000   0.09914   0.00000
  12  C 1   dxx      0.00000  -0.01040   0.00000   0.01238   0.00000   0.00000
  13  C 1   dxy     -0.00440   0.00000   0.01387   0.00000   0.00000   0.01257
  14  C 1   dyy      0.00000   0.01457   0.00000  -0.00488   0.00000   0.00000
  15  C 1   dxz      0.00000   0.00000   0.00000   0.00000  -0.01149   0.00000
  16  C 1   dyz      0.00000   0.00000   0.00000   0.00000   0.00000   0.00000
  17  C 1   dzz      0.00000   0.00512   0.00000  -0.00054   0.00000   0.00000
  18  C 2   s        0.00000  -0.06655   0.00000  -0.00269   0.00000   0.00000
  19  C 2   s        0.00000   0.13853   0.00000   0.01107   0.00000   0.00000
  20  C 2   px       0.00000  -0.07406   0.00000   0.33254   0.00000   0.00000
  21  C 2   py       0.26493   0.00000  -0.10452   0.00000   0.00000   0.25985
  22  C 2   pz       0.00000   0.00000   0.00000   0.00000   0.20021   0.00000
  23  C 2   s        0.00000   0.17713   0.00000   0.00978   0.00000   0.00000
  24  C 2   px       0.00000  -0.02862   0.00000   0.11491   0.00000   0.00000
  25  C 2   py       0.07691   0.00000   0.01007   0.00000   0.00000   0.08578
  26  C 2   pz       0.00000   0.00000   0.00000   0.00000   0.09914   0.00000
  27  C 2   dxx      0.00000   0.01040   0.00000  -0.01238   0.00000   0.00000
  28  C 2   dxy      0.00440   0.00000  -0.01387   0.00000   0.00000   0.01257
  29  C 2   dyy      0.00000  -0.01457   0.00000   0.00488   0.00000   0.00000
  30  C 2   dxz      0.00000   0.00000   0.00000   0.00000   0.01149   0.00000
  31  C 2   dyz      0.00000   0.00000   0.00000   0.00000   0.00000   0.00000
  32  C 2   dzz      0.00000  -0.00512   0.00000   0.00054   0.00000   0.00000
  33  C 3   s       -0.00301  -0.05709   0.01374   0.01987   0.00000   0.00101
  34  C 3   s        0.00597   0.11993  -0.03456  -0.04543   0.00000  -0.01063
  35  C 3   px       0.25960   0.06806   0.14610   0.00644   0.00000  -0.01367
  36  C 3   py      -0.11945   0.15600   0.23411   0.14873   0.00000   0.25064
  37  C 3   pz       0.00000   0.00000   0.00000   0.00000   0.24488   0.00000
  38  C 3   s        0.01030   0.17327  -0.04717  -0.07113   0.00000   0.03213
  39  C 3   px       0.08096   0.02334   0.03221   0.03986   0.00000  -0.01729
  40  C 3   py      -0.03690   0.05767   0.09778   0.03866   0.00000   0.09030
  41  C 3   pz       0.00000   0.00000   0.00000   0.00000   0.13333   0.00000
  42  C 3   dxx     -0.00492  -0.00779  -0.00449   0.01119   0.00000  -0.00015
  43  C 3   dxy     -0.00132   0.01593   0.00184   0.00595   0.00000   0.01953
  44  C 3   dyy      0.00533   0.00402   0.01213  -0.00606   0.00000   0.00776
  45  C 3   dxz      0.00000   0.00000   0.00000   0.00000  -0.00826   0.00000
  46  C 3   dyz      0.00000   0.00000   0.00000   0.00000  -0.00908   0.00000
  47  C 3   dzz     -0.00027  -0.00305  -0.00003   0.00053   0.00000  -0.00098
  48  C 4   s        0.00301  -0.05709  -0.01374   0.01987   0.00000  -0.00101
  49  C 4   s       -0.00597   0.11993   0.03456  -0.04543   0.00000   0.01063
  50  C 4   px      -0.25960   0.06806  -0.14610   0.00644   0.00000   0.01367
  51  C 4   py      -0.11945  -0.15600   0.23411  -0.14873   0.00000   0.25064
  52  C 4   pz       0.00000   0.00000   0.00000   0.00000   0.24488   0.00000
  53  C 4   s       -0.01030   0.17327   0.04717  -0.07113   0.00000  -0.03213
  54  C 4   px      -0.08096   0.02334  -0.03221   0.03986   0.00000   0.01729
  55  C 4   py      -0.03690  -0.05767   0.09778  -0.03866   0.00000   0.09030
  56  C 4   pz       0.00000   0.00000   0.00000   0.00000   0.13333   0.00000
  57  C 4   dxx      0.00492  -0.00779   0.00449   0.01119   0.00000   0.00015
  58  C 4   dxy     -0.00132  -0.01593   0.00184  -0.00595   0.00000   0.01953
  59  C 4   dyy     -0.00533   0.00402  -0.01213  -0.00606   0.00000  -0.00776
  60  C 4   dxz      0.00000   0.00000   0.00000   0.00000  -0.00826   0.00000
  61  C 4   dyz      0.00000   0.00000   0.00000   0.00000   0.00908   0.00000
  62  C 4   dzz      0.00027  -0.00305   0.00003   0.00053   0.00000   0.00098
  63  C 5   s        0.00301   0.05709  -0.01374  -0.01987   0.00000   0.00101
  64  C 5   s       -0.00597  -0.11993   0.03456   0.04543   0.00000  -0.01063
  65  C 5   px       0.25960   0.06806   0.14610   0.00644   0.00000   0.01367
  66  C 5   py      -0.11945   0.15600   0.23411   0.14873   0.00000  -0.25064
  67  C 5   pz       0.00000   0.00000   0.00000   0.00000   0.24488   0.00000
  68  C 5   s       -0.01030  -0.17327   0.04717   0.07113   0.00000   0.03213
  69  C 5   px       0.08096   0.02334   0.03221   0.03986   0.00000   0.01729
  70  C 5   py      -0.03690   0.05767   0.09778   0.03866   0.00000  -0.09030
  71  C 5   pz       0.00000   0.00000   0.00000   0.00000   0.13333   0.00000
  72  C 5   dxx      0.00492   0.00779   0.00449  -0.01119   0.00000  -0.00015
  73  C 5   dxy      0.00132  -0.01593  -0.00184  -0.00595   0.00000   0.01953
  74  C 5   dyy     -0.00533  -0.00402  -0.01213   0.00606   0.00000   0.00776
  75  C 5   dxz      0.00000   0.00000   0.00000   0.00000   0.00826   0.00000
  76  C 5   dyz      0.00000   0.00000   0.00000   0.00000   0.00908   0.00000
  77  C 5   dzz      0.00027   0.00305   0.00003  -0.00053   0.00000  -0.00098
  78  C 6   s       -0.00301   0.05709   0.01374  -0.01987   0.00000  -0.00101
  79  C 6   s        0.00597  -0.11993  -0.03456   0.04543   0.00000   0.01063
  80  C 6   px      -0.25960   0.06806  -0.14610   0.00644   0.00000  -0.01367
  81  C 6   py      -0.11945  -0.15600   0.23411  -0.14873   0.00000  -0.25064
  82  C 6   pz       0.00000   0.00000   0.00000   0.00000   0.24488   0.00000
  83  C 6   s        0.01030  -0.17327  -0.04717   0.07113   0.00000  -0.03213
  84  C 6   px      -0.08096   0.02334  -0.03221   0.03986   0.00000  -0.01729
  85  C 6   py      -0.03690  -0.05767   0.09778  -0.03866   0.00000  -0.09030
  86  C 6   pz       0.00000   0.00000   0.00000   0.00000   0.13333   0.00000
  87  C 6   dxx     -0.00492   0.00779  -0.00449  -0.01119   0.00000   0.00015
  88  C 6   dxy      0.00132   0.01593  -0.00184   0.00595   0.00000   0.01953
  89  C 6   dyy      0.00533  -0.00402   0.01213   0.00606   0.00000  -0.00776
  90  C 6   dxz      0.00000   0.00000   0.00000   0.00000   0.00826   0.00000
  91  C 6   dyz      0.00000   0.00000   0.00000   0.00000  -0.00908   0.00000
  92  C 6   dzz     -0.00027   0.00305  -0.00003  -0.00053   0.00000   0.00098
  93  H 2   s        0.01779   0.14971   0.14143   0.05501   0.00000   0.14733
  94  H 2   s        0.01122   0.07730   0.09353   0.04022   0.00000   0.12266
  95  H 3   s       -0.01779   0.14971  -0.14143   0.05501   0.00000  -0.14733
  96  H 3   s       -0.01122   0.07730  -0.09353   0.04022   0.00000  -0.12266
  97  H 4   s       -0.01779  -0.14971  -0.14143  -0.05501   0.00000   0.14733
  98  H 4   s       -0.01122  -0.07730  -0.09353  -0.04022   0.00000   0.12266
  99  H 5   s        0.01779  -0.14971   0.14143  -0.05501   0.00000  -0.14733
 100  H 5   s        0.01122  -0.07730   0.09353  -0.04022   0.00000  -0.12266
 101  H 6   s        0.00000   0.10655   0.00000  -0.19016   0.00000   0.00000
 102  H 6   s        0.00000   0.05122   0.00000  -0.13064   0.00000   0.00000
                        19        20        21        22        23        24
 eigenvalues:         -0.569    -0.512    -0.479    -0.252    -0.226    -0.102
   1  H 1   s       -0.18042   0.00000   0.00000   0.00000   0.00000   0.07623
   2  H 1   s       -0.14647   0.00000   0.00000   0.00000   0.00000   0.63330
   3  C 1   s        0.00616   0.00000   0.00000   0.00000   0.00000   0.03359
   4  C 1   s       -0.00607   0.00000   0.00000   0.00000   0.00000  -0.07628
   5  C 1   px      -0.24750   0.00000   0.00000   0.00000   0.00000  -0.10561
   6  C 1   py       0.00000   0.00000   0.00000   0.00000   0.00000   0.00000
   7  C 1   pz       0.00000   0.00000   0.32839   0.00000   0.38498   0.00000
   8  C 1   s       -0.04867   0.00000   0.00000   0.00000   0.00000  -0.39181
   9  C 1   px      -0.08791   0.00000   0.00000   0.00000   0.00000  -0.25051
  10  C 1   py       0.00000   0.00000   0.00000   0.00000   0.00000   0.00000
  11  C 1   pz       0.00000   0.00000   0.21298   0.00000   0.47348   0.00000
  12  C 1   dxx     -0.02278   0.00000   0.00000   0.00000   0.00000   0.02421
  13  C 1   dxy      0.00000   0.00000   0.00000   0.00000   0.00000   0.00000
  14  C 1   dyy      0.01442   0.00000   0.00000   0.00000   0.00000  -0.01712
  15  C 1   dxz      0.00000   0.00000  -0.00855   0.00000   0.00655   0.00000
  16  C 1   dyz      0.00000   0.01783   0.00000  -0.02953   0.00000   0.00000
  17  C 1   dzz      0.00118   0.00000   0.00000   0.00000   0.00000  -0.00305
  18  C 2   s        0.00616   0.00000   0.00000   0.00000   0.00000   0.03359
  19  C 2   s       -0.00607   0.00000   0.00000   0.00000   0.00000  -0.07628
  20  C 2   px       0.24750   0.00000   0.00000   0.00000   0.00000   0.10561
  21  C 2   py       0.00000   0.00000   0.00000   0.00000   0.00000   0.00000
  22  C 2   pz       0.00000   0.00000  -0.32839   0.00000   0.38498   0.00000
  23  C 2   s       -0.04867   0.00000   0.00000   0.00000   0.00000  -0.39181
  24  C 2   px       0.08791   0.00000   0.00000   0.00000   0.00000   0.25051
  25  C 2   py       0.00000   0.00000   0.00000   0.00000   0.00000   0.00000
  26  C 2   pz       0.00000   0.00000  -0.21298   0.00000   0.47348   0.00000
  27  C 2   dxx     -0.02278   0.00000   0.00000   0.00000   0.00000   0.02421
  28  C 2   dxy      0.00000   0.00000   0.00000   0.00000   0.00000   0.00000
  29  C 2   dyy      0.01442   0.00000   0.00000   0.00000   0.00000  -0.01712
  30  C 2   dxz      0.00000   0.00000  -0.00855   0.00000  -0.00655   0.00000
  31  C 2   dyz      0.00000   0.01783   0.00000   0.02953   0.00000   0.00000
  32  C 2   dzz      0.00118   0.00000   0.00000   0.00000   0.00000  -0.00305
  33  C 3   s       -0.00302   0.00000   0.00000   0.00000   0.00000   0.04060
  34  C 3   s        0.00210   0.00000   0.00000   0.00000   0.00000  -0.08862
  35  C 3   px       0.24790   0.00000   0.00000   0.00000   0.00000  -0.06846
  36  C 3   py      -0.01453   0.00000   0.00000   0.00000   0.00000  -0.10531
  37  C 3   pz       0.00000   0.30958   0.19653  -0.33965  -0.18011   0.00000
  38  C 3   s        0.02081   0.00000   0.00000   0.00000   0.00000  -0.52310
  39  C 3   px       0.08612   0.00000   0.00000   0.00000   0.00000  -0.15794
  40  C 3   py      -0.00844   0.00000   0.00000   0.00000   0.00000  -0.23511
  41  C 3   pz       0.00000   0.19556   0.13571  -0.38205  -0.21697   0.00000
  42  C 3   dxx     -0.01172   0.00000   0.00000   0.00000   0.00000  -0.00566
  43  C 3   dxy      0.00562   0.00000   0.00000   0.00000   0.00000   0.02144
  44  C 3   dyy      0.01535   0.00000   0.00000   0.00000   0.00000   0.01527
  45  C 3   dxz      0.00000  -0.01408   0.01282  -0.01631   0.02350   0.00000
  46  C 3   dyz      0.00000  -0.00009  -0.01168   0.00037  -0.02027   0.00000
  47  C 3   dzz     -0.00072   0.00000   0.00000   0.00000   0.00000  -0.00447
  48  C 4   s       -0.00302   0.00000   0.00000   0.00000   0.00000   0.04060
  49  C 4   s        0.00210   0.00000   0.00000   0.00000   0.00000  -0.08862
  50  C 4   px       0.24790   0.00000   0.00000   0.00000   0.00000  -0.06846
  51  C 4   py       0.01453   0.00000   0.00000   0.00000   0.00000   0.10531
  52  C 4   pz       0.00000  -0.30958   0.19653   0.33965  -0.18011   0.00000
  53  C 4   s        0.02081   0.00000   0.00000   0.00000   0.00000  -0.52310
  54  C 4   px       0.08612   0.00000   0.00000   0.00000   0.00000  -0.15794
  55  C 4   py       0.00844   0.00000   0.00000   0.00000   0.00000   0.23511
  56  C 4   pz       0.00000  -0.19556   0.13571   0.38205  -0.21697   0.00000
  57  C 4   dxx     -0.01172   0.00000   0.00000   0.00000   0.00000  -0.00566
  58  C 4   dxy     -0.00562   0.00000   0.00000   0.00000   0.00000  -0.02144
  59  C 4   dyy      0.01535   0.00000   0.00000   0.00000   0.00000   0.01527
  60  C 4   dxz      0.00000   0.01408   0.01282   0.01631   0.02350   0.00000
  61  C 4   dyz      0.00000  -0.00009   0.01168   0.00037   0.02027   0.00000
  62  C 4   dzz     -0.00072   0.00000   0.00000   0.00000   0.00000  -0.00447
  63  C 5   s       -0.00302   0.00000   0.00000   0.00000   0.00000   0.04060
  64  C 5   s        0.00210   0.00000   0.00000   0.00000   0.00000  -0.08862
  65  C 5   px      -0.24790   0.00000   0.00000   0.00000   0.00000   0.06846
  66  C 5   py       0.01453   0.00000   0.00000   0.00000   0.00000   0.10531
  67  C 5   pz       0.00000  -0.30958  -0.19653  -0.33965  -0.18011   0.00000
  68  C 5   s        0.02081   0.00000   0.00000   0.00000   0.00000  -0.52310
  69  C 5   px      -0.08612   0.00000   0.00000   0.00000   0.00000   0.15794
  70  C 5   py       0.00844   0.00000   0.00000   0.00000   0.00000   0.23511
  71  C 5   pz       0.00000  -0.19556  -0.13571  -0.38205  -0.21697   0.00000
  72  C 5   dxx     -0.01172   0.00000   0.00000   0.00000   0.00000  -0.00566
  73  C 5   dxy      0.00562   0.00000   0.00000   0.00000   0.00000   0.02144
  74  C 5   dyy      0.01535   0.00000   0.00000   0.00000   0.00000   0.01527
  75  C 5   dxz      0.00000  -0.01408   0.01282   0.01631  -0.02350   0.00000
  76  C 5   dyz      0.00000  -0.00009  -0.01168  -0.00037   0.02027   0.00000
  77  C 5   dzz     -0.00072   0.00000   0.00000   0.00000   0.00000  -0.00447
  78  C 6   s       -0.00302   0.00000   0.00000   0.00000   0.00000   0.04060
  79  C 6   s        0.00210   0.00000   0.00000   0.00000   0.00000  -0.08862
  80  C 6   px      -0.24790   0.00000   0.00000   0.00000   0.00000   0.06846
  81  C 6   py      -0.01453   0.00000   0.00000   0.00000   0.00000  -0.10531
  82  C 6   pz       0.00000   0.30958  -0.19653   0.33965  -0.18011   0.00000
  83  C 6   s        0.02081   0.00000   0.00000   0.00000   0.00000  -0.52310
  84  C 6   px      -0.08612   0.00000   0.00000   0.00000   0.00000   0.15794
  85  C 6   py      -0.00844   0.00000   0.00000   0.00000   0.00000  -0.23511
  86  C 6   pz       0.00000   0.19556  -0.13571   0.38205  -0.21697   0.00000
  87  C 6   dxx     -0.01172   0.00000   0.00000   0.00000   0.00000  -0.00566
  88  C 6   dxy     -0.00562   0.00000   0.00000   0.00000   0.00000  -0.02144
  89  C 6   dyy      0.01535   0.00000   0.00000   0.00000   0.00000   0.01527
  90  C 6   dxz      0.00000   0.01408   0.01282  -0.01631  -0.02350   0.00000
  91  C 6   dyz      0.00000  -0.00009   0.01168  -0.00037  -0.02027   0.00000
  92  C 6   dzz     -0.00072   0.00000   0.00000   0.00000   0.00000  -0.00447
  93  H 2   s        0.08441   0.00000   0.00000   0.00000   0.00000   0.08450
  94  H 2   s        0.07177   0.00000   0.00000   0.00000   0.00000   0.73383
  95  H 3   s        0.08441   0.00000   0.00000   0.00000   0.00000   0.08450
  96  H 3   s        0.07177   0.00000   0.00000   0.00000   0.00000   0.73383
  97  H 4   s        0.08441   0.00000   0.00000   0.00000   0.00000   0.08450
  98  H 4   s        0.07177   0.00000   0.00000   0.00000   0.00000   0.73383
  99  H 5   s        0.08441   0.00000   0.00000   0.00000   0.00000   0.08450
 100  H 5   s        0.07177   0.00000   0.00000   0.00000   0.00000   0.73383
 101  H 6   s       -0.18042   0.00000   0.00000   0.00000   0.00000   0.07623
 102  H 6   s       -0.14647   0.00000   0.00000   0.00000   0.00000   0.63330
                        25        26
 eigenvalues:         -0.076    -0.049
   1  H 1   s        0.00000   0.00000
   2  H 1   s        0.00000   0.00000
   3  C 1   s        0.00000   0.00000
   4  C 1   s        0.00000   0.00000
   5  C 1   px       0.00000   0.00000
   6  C 1   py       0.00000   0.05001
   7  C 1   pz      -0.31762   0.00000
   8  C 1   s        0.00000   0.00000
   9  C 1   px       0.00000   0.00000
  10  C 1   py       0.00000  -0.11465
  11  C 1   pz      -0.51772   0.00000
  12  C 1   dxx      0.00000   0.00000
  13  C 1   dxy      0.00000   0.01404
  14  C 1   dyy      0.00000   0.00000
  15  C 1   dxz     -0.01427   0.00000
  16  C 1   dyz      0.00000   0.00000
  17  C 1   dzz      0.00000   0.00000
  18  C 2   s        0.00000   0.00000
  19  C 2   s        0.00000   0.00000
  20  C 2   px       0.00000   0.00000
  21  C 2   py       0.00000   0.05001
  22  C 2   pz       0.31762   0.00000
  23  C 2   s        0.00000   0.00000
  24  C 2   px       0.00000   0.00000
  25  C 2   py       0.00000  -0.11465
  26  C 2   pz       0.51772   0.00000
  27  C 2   dxx      0.00000   0.00000
  28  C 2   dxy      0.00000  -0.01404
  29  C 2   dyy      0.00000   0.00000
  30  C 2   dxz     -0.01427   0.00000
  31  C 2   dyz      0.00000   0.00000
  32  C 2   dzz      0.00000   0.00000
  33  C 3   s        0.00000  -0.03141
  34  C 3   s        0.00000   0.04372
  35  C 3   px       0.00000   0.09203
  36  C 3   py       0.00000   0.20676
  37  C 3   pz       0.30531   0.00000
  38  C 3   s        0.00000   0.70954
  39  C 3   px       0.00000   0.29183
  40  C 3   py       0.00000   0.38848
  41  C 3   pz       0.48045   0.00000
  42  C 3   dxx      0.00000   0.00018
  43  C 3   dxy      0.00000  -0.01938
  44  C 3   dyy      0.00000  -0.00289
  45  C 3   dxz      0.00589   0.00000
  46  C 3   dyz      0.01629   0.00000
  47  C 3   dzz      0.00000   0.00063
  48  C 4   s        0.00000   0.03141
  49  C 4   s        0.00000  -0.04372
  50  C 4   px       0.00000  -0.09203
  51  C 4   py       0.00000   0.20676
  52  C 4   pz       0.30531   0.00000
  53  C 4   s        0.00000  -0.70954
  54  C 4   px       0.00000  -0.29183
  55  C 4   py       0.00000   0.38848
  56  C 4   pz       0.48045   0.00000
  57  C 4   dxx      0.00000  -0.00018
  58  C 4   dxy      0.00000  -0.01938
  59  C 4   dyy      0.00000   0.00289
  60  C 4   dxz      0.00589   0.00000
  61  C 4   dyz     -0.01629   0.00000
  62  C 4   dzz      0.00000  -0.00063
  63  C 5   s        0.00000   0.03141
  64  C 5   s        0.00000  -0.04372
  65  C 5   px       0.00000   0.09203
  66  C 5   py       0.00000   0.20676
  67  C 5   pz      -0.30531   0.00000
  68  C 5   s        0.00000  -0.70954
  69  C 5   px       0.00000   0.29183
  70  C 5   py       0.00000   0.38848
  71  C 5   pz      -0.48045   0.00000
  72  C 5   dxx      0.00000  -0.00018
  73  C 5   dxy      0.00000   0.01938
  74  C 5   dyy      0.00000   0.00289
  75  C 5   dxz      0.00589   0.00000
  76  C 5   dyz      0.01629   0.00000
  77  C 5   dzz      0.00000  -0.00063
  78  C 6   s        0.00000  -0.03141
  79  C 6   s        0.00000   0.04372
  80  C 6   px       0.00000  -0.09203
  81  C 6   py       0.00000   0.20676
  82  C 6   pz      -0.30531   0.00000
  83  C 6   s        0.00000   0.70954
  84  C 6   px       0.00000  -0.29183
  85  C 6   py       0.00000   0.38848
  86  C 6   pz      -0.48045   0.00000
  87  C 6   dxx      0.00000   0.00018
  88  C 6   dxy      0.00000   0.01938
  89  C 6   dyy      0.00000  -0.00289
  90  C 6   dxz      0.00589   0.00000
  91  C 6   dyz     -0.01629   0.00000
  92  C 6   dzz      0.00000   0.00063
  93  H 2   s        0.00000  -0.07153
  94  H 2   s        0.00000  -1.00215
  95  H 3   s        0.00000   0.07153
  96  H 3   s        0.00000   1.00215
  97  H 4   s        0.00000   0.07153
  98  H 4   s        0.00000   1.00215
  99  H 5   s        0.00000  -0.07153
 100  H 5   s        0.00000  -1.00215
 101  H 6   s        0.00000   0.00000
 102  H 6   s        0.00000   0.00000
 

                        BETA  MOLECULAR ORBITAL COEFFICIENTS
                         1         2         3         4         5         6
 eigenvalues:        -10.442   -10.442   -10.441   -10.441   -10.413   -10.413
   1  H 1   s       -0.00001   0.00000  -0.00011   0.00000  -0.00036  -0.00026
   2  H 1   s        0.00046   0.00000  -0.00126   0.00000  -0.00001   0.00086
   3  C 1   s        0.00946   0.00005  -0.00961  -0.00002   0.70380   0.70006
   4  C 1   s       -0.00010   0.00000   0.00025   0.00000   0.03571   0.03515
   5  C 1   px       0.00027   0.00000  -0.00020   0.00000  -0.00045  -0.00039
   6  C 1   py       0.00000  -0.00030   0.00000   0.00025   0.00000   0.00000
   7  C 1   pz       0.00000   0.00000   0.00000   0.00000   0.00000   0.00000
   8  C 1   s        0.00455   0.00002  -0.01285  -0.00003  -0.01676  -0.01093
   9  C 1   px      -0.00192  -0.00001   0.00651   0.00002   0.00564   0.00211
  10  C 1   py      -0.00001   0.00138   0.00000  -0.00136   0.00000   0.00000
  11  C 1   pz       0.00000   0.00000   0.00000   0.00000   0.00000   0.00000
  12  C 1   dxx     -0.00027   0.00000   0.00042   0.00000  -0.00664  -0.00664
  13  C 1   dxy      0.00000   0.00005   0.00000  -0.00014   0.00000   0.00000
  14  C 1   dyy     -0.00047   0.00000   0.00060   0.00000  -0.00652  -0.00647
  15  C 1   dxz      0.00000   0.00000   0.00000   0.00000   0.00000   0.00000
  16  C 1   dyz      0.00000   0.00000   0.00000   0.00000   0.00000   0.00000
  17  C 1   dzz     -0.00027   0.00000   0.00033   0.00000  -0.00671  -0.00682
  18  C 2   s        0.00946   0.00005   0.00961   0.00002  -0.70013   0.70373
  19  C 2   s       -0.00010   0.00000  -0.00025   0.00000  -0.03553   0.03533
  20  C 2   px      -0.00027   0.00000  -0.00020   0.00000  -0.00045   0.00039
  21  C 2   py       0.00000  -0.00030   0.00000  -0.00025   0.00000   0.00000
  22  C 2   pz       0.00000   0.00000   0.00000   0.00000   0.00000   0.00000
  23  C 2   s        0.00455   0.00002   0.01285   0.00003   0.01670  -0.01102
  24  C 2   px       0.00192   0.00001   0.00651   0.00002   0.00563  -0.00214
  25  C 2   py      -0.00001   0.00138   0.00000   0.00136   0.00000   0.00000
  26  C 2   pz       0.00000   0.00000   0.00000   0.00000   0.00000   0.00000
  27  C 2   dxx     -0.00027   0.00000  -0.00042   0.00000   0.00661  -0.00668
  28  C 2   dxy      0.00000  -0.00005   0.00000  -0.00014   0.00000   0.00000
  29  C 2   dyy     -0.00047   0.00000  -0.00060   0.00000   0.00648  -0.00650
  30  C 2   dxz      0.00000   0.00000   0.00000   0.00000   0.00000   0.00000
  31  C 2   dyz      0.00000   0.00000   0.00000   0.00000   0.00000   0.00000
  32  C 2   dzz     -0.00027   0.00000  -0.00033   0.00000   0.00667  -0.00686
  33  C 3   s        0.49373   0.49890  -0.49529  -0.49777  -0.00720  -0.00697
  34  C 3   s        0.02409   0.02450  -0.02503  -0.02479  -0.00089  -0.00072
  35  C 3   px      -0.00002  -0.00002   0.00045   0.00042  -0.00011  -0.00005
  36  C 3   py      -0.00010  -0.00018   0.00020   0.00021   0.00024   0.00025
  37  C 3   pz       0.00000   0.00000   0.00000   0.00000   0.00000   0.00000
  38  C 3   s       -0.00533  -0.00491   0.01791   0.00988   0.00983   0.00335
  39  C 3   px      -0.00028  -0.00031  -0.00414  -0.00177  -0.00159   0.00024
  40  C 3   py       0.00083   0.00075  -0.00562  -0.00151  -0.00475  -0.00163
  41  C 3   pz       0.00000   0.00000   0.00000   0.00000   0.00000   0.00000
  42  C 3   dxx     -0.00467  -0.00474   0.00411   0.00415  -0.00024  -0.00011
  43  C 3   dxy     -0.00003   0.00000   0.00007   0.00008   0.00009   0.00013
  44  C 3   dyy     -0.00456  -0.00468   0.00432   0.00445  -0.00024  -0.00019
  45  C 3   dxz      0.00000   0.00000   0.00000   0.00000   0.00000   0.00000
  46  C 3   dyz      0.00000   0.00000   0.00000   0.00000   0.00000   0.00000
  47  C 3   dzz     -0.00488  -0.00487   0.00458   0.00474  -0.00011  -0.00006
  48  C 4   s        0.49889  -0.49385  -0.49774   0.49520  -0.00720  -0.00697
  49  C 4   s        0.02434  -0.02425  -0.02515   0.02466  -0.00089  -0.00072
  50  C 4   px      -0.00002   0.00002   0.00045  -0.00042  -0.00011  -0.00005
  51  C 4   py       0.00010  -0.00018  -0.00020   0.00020  -0.00024  -0.00025
  52  C 4   pz       0.00000   0.00000   0.00000   0.00000   0.00000   0.00000
  53  C 4   s       -0.00539   0.00486   0.01796  -0.00979   0.00983   0.00335
  54  C 4   px      -0.00028   0.00031  -0.00415   0.00175  -0.00159   0.00024
  55  C 4   py      -0.00084   0.00074   0.00562  -0.00148   0.00475   0.00163
  56  C 4   pz       0.00000   0.00000   0.00000   0.00000   0.00000   0.00000
  57  C 4   dxx     -0.00472   0.00470   0.00413  -0.00413  -0.00024  -0.00011
  58  C 4   dxy      0.00003   0.00000  -0.00007   0.00007  -0.00009  -0.00013
  59  C 4   dyy     -0.00461   0.00464   0.00435  -0.00443  -0.00024  -0.00019
  60  C 4   dxz      0.00000   0.00000   0.00000   0.00000   0.00000   0.00000
  61  C 4   dyz      0.00000   0.00000   0.00000   0.00000   0.00000   0.00000
  62  C 4   dzz     -0.00493   0.00482   0.00461  -0.00472  -0.00011  -0.00006
  63  C 5   s        0.49875  -0.49371   0.49788  -0.49534   0.00717  -0.00700
  64  C 5   s        0.02434  -0.02425   0.02515  -0.02467   0.00089  -0.00072
  65  C 5   px       0.00002  -0.00002   0.00045  -0.00042  -0.00011   0.00005
  66  C 5   py       0.00010  -0.00018   0.00020  -0.00020   0.00024  -0.00025
  67  C 5   pz       0.00000   0.00000   0.00000   0.00000   0.00000   0.00000
  68  C 5   s       -0.00538   0.00485  -0.01796   0.00979  -0.00981   0.00340
  69  C 5   px       0.00028  -0.00031  -0.00415   0.00175  -0.00159  -0.00023
  70  C 5   py      -0.00084   0.00074  -0.00562   0.00148  -0.00474   0.00166
  71  C 5   pz       0.00000   0.00000   0.00000   0.00000   0.00000   0.00000
  72  C 5   dxx     -0.00472   0.00470  -0.00413   0.00413   0.00024  -0.00011
  73  C 5   dxy     -0.00003   0.00000  -0.00007   0.00007  -0.00009   0.00013
  74  C 5   dyy     -0.00461   0.00463  -0.00435   0.00443   0.00024  -0.00019
  75  C 5   dxz      0.00000   0.00000   0.00000   0.00000   0.00000   0.00000
  76  C 5   dyz      0.00000   0.00000   0.00000   0.00000   0.00000   0.00000
  77  C 5   dzz     -0.00493   0.00482  -0.00461   0.00472   0.00011  -0.00006
  78  C 6   s        0.49371   0.49887   0.49532   0.49779   0.00717  -0.00700
  79  C 6   s        0.02409   0.02450   0.02503   0.02479   0.00089  -0.00072
  80  C 6   px       0.00002   0.00002   0.00045   0.00042  -0.00011   0.00005
  81  C 6   py      -0.00010  -0.00018  -0.00020  -0.00021  -0.00024   0.00025
  82  C 6   pz       0.00000   0.00000   0.00000   0.00000   0.00000   0.00000
  83  C 6   s       -0.00533  -0.00491  -0.01791  -0.00988  -0.00981   0.00340
  84  C 6   px       0.00028   0.00031  -0.00414  -0.00177  -0.00159  -0.00023
  85  C 6   py       0.00083   0.00075   0.00562   0.00151   0.00474  -0.00166
  86  C 6   pz       0.00000   0.00000   0.00000   0.00000   0.00000   0.00000
  87  C 6   dxx     -0.00467  -0.00474  -0.00411  -0.00415   0.00024  -0.00011
  88  C 6   dxy      0.00003   0.00000   0.00007   0.00008   0.00009  -0.00013
  89  C 6   dyy     -0.00456  -0.00468  -0.00433  -0.00445   0.00024  -0.00019
  90  C 6   dxz      0.00000   0.00000   0.00000   0.00000   0.00000   0.00000
  91  C 6   dyz      0.00000   0.00000   0.00000   0.00000   0.00000   0.00000
  92  C 6   dzz     -0.00488  -0.00487  -0.00458  -0.00474   0.00011  -0.00006
  93  H 2   s       -0.00022  -0.00022   0.00032   0.00019   0.00008  -0.00001
  94  H 2   s        0.00082   0.00069   0.00054  -0.00050   0.00093   0.00028
  95  H 3   s       -0.00022   0.00022   0.00032  -0.00018   0.00008  -0.00001
  96  H 3   s        0.00082  -0.00068   0.00053   0.00050   0.00093   0.00028
  97  H 4   s       -0.00022   0.00022  -0.00032   0.00018  -0.00008  -0.00001
  98  H 4   s        0.00082  -0.00068  -0.00053  -0.00050  -0.00093   0.00028
  99  H 5   s       -0.00022  -0.00022  -0.00032  -0.00019  -0.00008  -0.00001
 100  H 5   s        0.00082   0.00069  -0.00054   0.00050  -0.00093   0.00028
 101  H 6   s       -0.00001   0.00000   0.00011   0.00000   0.00036  -0.00026
 102  H 6   s        0.00046   0.00000   0.00126   0.00000   0.00001   0.00086
                         7         8         9        10        11        12
 eigenvalues:         -1.088    -0.978    -0.972    -0.829    -0.826    -0.746
   1  H 1   s        0.03057   0.00000  -0.06984   0.09665   0.00000  -0.10634
   2  H 1   s        0.00354   0.00000  -0.00603   0.01541   0.00000  -0.04265
   3  C 1   s       -0.09187   0.00000   0.13113  -0.10384   0.00000   0.01942
   4  C 1   s        0.17539   0.00000  -0.26060   0.21645   0.00000  -0.04152
   5  C 1   px      -0.06704   0.00000   0.03465   0.04541   0.00000  -0.19450
   6  C 1   py       0.00000   0.11285   0.00000   0.00000   0.21178   0.00000
   7  C 1   pz       0.00000   0.00000   0.00000   0.00000   0.00000   0.00000
   8  C 1   s        0.11186   0.00000  -0.19793   0.16680   0.00000  -0.06366
   9  C 1   px      -0.01532   0.00000  -0.00152   0.04965   0.00000  -0.07241
  10  C 1   py       0.00000   0.01456   0.00000   0.00000   0.04909   0.00000
  11  C 1   pz       0.00000   0.00000   0.00000   0.00000   0.00000   0.00000
  12  C 1   dxx      0.00344   0.00000  -0.00102   0.00194   0.00000   0.00156
  13  C 1   dxy      0.00000  -0.01122   0.00000   0.00000  -0.01037   0.00000
  14  C 1   dyy      0.00282   0.00000  -0.00294  -0.00601   0.00000  -0.00432
  15  C 1   dxz      0.00000   0.00000   0.00000   0.00000   0.00000   0.00000
  16  C 1   dyz      0.00000   0.00000   0.00000   0.00000   0.00000   0.00000
  17  C 1   dzz     -0.01022   0.00000   0.01194  -0.00749   0.00000   0.00051
  18  C 2   s       -0.09187   0.00000  -0.13113  -0.10384   0.00000   0.01942
  19  C 2   s        0.17539   0.00000   0.26060   0.21645   0.00000  -0.04152
  20  C 2   px       0.06704   0.00000   0.03465  -0.04541   0.00000   0.19450
  21  C 2   py       0.00000   0.11285   0.00000   0.00000  -0.21178   0.00000
  22  C 2   pz       0.00000   0.00000   0.00000   0.00000   0.00000   0.00000
  23  C 2   s        0.11186   0.00000   0.19793   0.16680   0.00000  -0.06366
  24  C 2   px       0.01532   0.00000  -0.00152  -0.04965   0.00000   0.07241
  25  C 2   py       0.00000   0.01456   0.00000   0.00000  -0.04909   0.00000
  26  C 2   pz       0.00000   0.00000   0.00000   0.00000   0.00000   0.00000
  27  C 2   dxx      0.00344   0.00000   0.00102   0.00194   0.00000   0.00156
  28  C 2   dxy      0.00000   0.01122   0.00000   0.00000  -0.01037   0.00000
  29  C 2   dyy      0.00282   0.00000   0.00294  -0.00601   0.00000  -0.00432
  30  C 2   dxz      0.00000   0.00000   0.00000   0.00000   0.00000   0.00000
  31  C 2   dyz      0.00000   0.00000   0.00000   0.00000   0.00000   0.00000
  32  C 2   dzz     -0.01022   0.00000  -0.01194  -0.00749   0.00000   0.00051
  33  C 3   s       -0.09456  -0.11386   0.06666   0.05034  -0.08988   0.01053
  34  C 3   s        0.18436   0.23094  -0.13409  -0.10765   0.18924  -0.02257
  35  C 3   px      -0.03816  -0.07144  -0.08203   0.14900   0.12212  -0.11837
  36  C 3   py      -0.05638   0.00864   0.06517  -0.13342  -0.00346  -0.16941
  37  C 3   pz       0.00000   0.00000   0.00000   0.00000   0.00000   0.00000
  38  C 3   s        0.10761   0.16499  -0.09822  -0.08250   0.15544  -0.04159
  39  C 3   px      -0.00539  -0.00488  -0.01200   0.02490   0.04236  -0.04002
  40  C 3   py      -0.00664   0.01050   0.00206  -0.05066   0.02881  -0.06396
  41  C 3   pz       0.00000   0.00000   0.00000   0.00000   0.00000   0.00000
  42  C 3   dxx      0.00432   0.00809   0.00602  -0.00603  -0.00715  -0.00216
  43  C 3   dxy      0.00041   0.00212   0.00514  -0.00601   0.00173   0.00307
  44  C 3   dyy      0.00392  -0.00170  -0.00889   0.00630   0.00510  -0.00209
  45  C 3   dxz      0.00000   0.00000   0.00000   0.00000   0.00000   0.00000
  46  C 3   dyz      0.00000   0.00000   0.00000   0.00000   0.00000   0.00000
  47  C 3   dzz     -0.01248  -0.01321   0.00726   0.00521  -0.00832   0.00019
  48  C 4   s       -0.09456   0.11386   0.06666   0.05034   0.08988   0.01053
  49  C 4   s        0.18436  -0.23094  -0.13409  -0.10765  -0.18924  -0.02257
  50  C 4   px      -0.03816   0.07144  -0.08203   0.14901  -0.12212  -0.11837
  51  C 4   py       0.05638   0.00864  -0.06517   0.13342  -0.00346   0.16941
  52  C 4   pz       0.00000   0.00000   0.00000   0.00000   0.00000   0.00000
  53  C 4   s        0.10761  -0.16499  -0.09822  -0.08250  -0.15544  -0.04159
  54  C 4   px      -0.00539   0.00488  -0.01200   0.02490  -0.04236  -0.04002
  55  C 4   py       0.00664   0.01050  -0.00206   0.05066   0.02881   0.06396
  56  C 4   pz       0.00000   0.00000   0.00000   0.00000   0.00000   0.00000
  57  C 4   dxx      0.00432  -0.00809   0.00602  -0.00603   0.00715  -0.00216
  58  C 4   dxy     -0.00041   0.00212  -0.00514   0.00601   0.00173  -0.00307
  59  C 4   dyy      0.00392   0.00170  -0.00889   0.00630  -0.00510  -0.00209
  60  C 4   dxz      0.00000   0.00000   0.00000   0.00000   0.00000   0.00000
  61  C 4   dyz      0.00000   0.00000   0.00000   0.00000   0.00000   0.00000
  62  C 4   dzz     -0.01248   0.01321   0.00726   0.00521   0.00832   0.00019
  63  C 5   s       -0.09456   0.11386  -0.06666   0.05034  -0.08988   0.01053
  64  C 5   s        0.18436  -0.23094   0.13409  -0.10765   0.18924  -0.02257
  65  C 5   px       0.03816  -0.07144  -0.08203  -0.14900  -0.12212   0.11837
  66  C 5   py       0.05638   0.00864   0.06517   0.13342   0.00346   0.16941
  67  C 5   pz       0.00000   0.00000   0.00000   0.00000   0.00000   0.00000
  68  C 5   s        0.10761  -0.16499   0.09822  -0.08250   0.15544  -0.04159
  69  C 5   px       0.00539  -0.00488  -0.01200  -0.02490  -0.04236   0.04002
  70  C 5   py       0.00664   0.01050   0.00206   0.05066  -0.02881   0.06396
  71  C 5   pz       0.00000   0.00000   0.00000   0.00000   0.00000   0.00000
  72  C 5   dxx      0.00432  -0.00809  -0.00602  -0.00603  -0.00715  -0.00216
  73  C 5   dxy      0.00041  -0.00212  -0.00514  -0.00601   0.00173   0.00307
  74  C 5   dyy      0.00392   0.00170   0.00889   0.00630   0.00510  -0.00209
  75  C 5   dxz      0.00000   0.00000   0.00000   0.00000   0.00000   0.00000
  76  C 5   dyz      0.00000   0.00000   0.00000   0.00000   0.00000   0.00000
  77  C 5   dzz     -0.01248   0.01321  -0.00726   0.00521  -0.00832   0.00019
  78  C 6   s       -0.09456  -0.11386  -0.06666   0.05034   0.08988   0.01053
  79  C 6   s        0.18436   0.23094   0.13409  -0.10765  -0.18924  -0.02257
  80  C 6   px       0.03816   0.07144  -0.08203  -0.14901   0.12212   0.11837
  81  C 6   py      -0.05638   0.00864  -0.06517  -0.13342   0.00346  -0.16941
  82  C 6   pz       0.00000   0.00000   0.00000   0.00000   0.00000   0.00000
  83  C 6   s        0.10761   0.16499   0.09822  -0.08250  -0.15544  -0.04159
  84  C 6   px       0.00539   0.00488  -0.01200  -0.02490   0.04236   0.04002
  85  C 6   py      -0.00664   0.01050  -0.00206  -0.05066  -0.02881  -0.06396
  86  C 6   pz       0.00000   0.00000   0.00000   0.00000   0.00000   0.00000
  87  C 6   dxx      0.00432   0.00809  -0.00602  -0.00603   0.00715  -0.00216
  88  C 6   dxy     -0.00041  -0.00212   0.00514   0.00601   0.00173  -0.00307
  89  C 6   dyy      0.00392  -0.00170   0.00889   0.00630  -0.00510  -0.00209
  90  C 6   dxz      0.00000   0.00000   0.00000   0.00000   0.00000   0.00000
  91  C 6   dyz      0.00000   0.00000   0.00000   0.00000   0.00000   0.00000
  92  C 6   dzz     -0.01248  -0.01321  -0.00726   0.00521   0.00832   0.00019
  93  H 2   s        0.03306   0.06331  -0.03761  -0.05653   0.09537  -0.10773
  94  H 2   s        0.00184   0.00474  -0.00304  -0.01097   0.01953  -0.04624
  95  H 3   s        0.03306  -0.06331  -0.03761  -0.05653  -0.09537  -0.10773
  96  H 3   s        0.00184  -0.00474  -0.00304  -0.01097  -0.01953  -0.04624
  97  H 4   s        0.03306  -0.06331   0.03761  -0.05653   0.09537  -0.10773
  98  H 4   s        0.00184  -0.00474   0.00304  -0.01097   0.01953  -0.04624
  99  H 5   s        0.03306   0.06331   0.03761  -0.05653  -0.09537  -0.10773
 100  H 5   s        0.00184   0.00474   0.00304  -0.01097  -0.01954  -0.04624
 101  H 6   s        0.03057   0.00000   0.06984   0.09665   0.00000  -0.10634
 102  H 6   s        0.00354   0.00000   0.00603   0.01541   0.00000  -0.04265
                        13        14        15        16        17        18
 eigenvalues:         -0.679    -0.677    -0.651    -0.638    -0.577    -0.569
   1  H 1   s        0.00000   0.10577   0.00000   0.18889   0.00000   0.00000
   2  H 1   s        0.00000   0.05008   0.00000   0.12832   0.00000   0.00000
   3  C 1   s        0.00000  -0.06390   0.00000   0.00391   0.00000   0.00000
   4  C 1   s        0.00000   0.13397   0.00000  -0.01420   0.00000   0.00000
   5  C 1   px       0.00000   0.07716   0.00000   0.33476   0.00000   0.00000
   6  C 1   py       0.27113   0.00000  -0.09736   0.00000   0.00000  -0.26233
   7  C 1   pz       0.00000   0.00000   0.00000   0.00000   0.23777   0.00000
   8  C 1   s        0.00000   0.16890   0.00000  -0.01767   0.00000   0.00000
   9  C 1   px       0.00000   0.03393   0.00000   0.12002   0.00000   0.00000
  10  C 1   py       0.08022   0.00000   0.01355   0.00000   0.00000  -0.08882
  11  C 1   pz       0.00000   0.00000   0.00000   0.00000   0.13713   0.00000
  12  C 1   dxx      0.00000   0.01021   0.00000   0.01201   0.00000   0.00000
  13  C 1   dxy     -0.00491   0.00000   0.01406   0.00000   0.00000   0.01275
  14  C 1   dyy      0.00000  -0.01484   0.00000  -0.00493   0.00000   0.00000
  15  C 1   dxz      0.00000   0.00000   0.00000   0.00000  -0.01234   0.00000
  16  C 1   dyz      0.00000   0.00000   0.00000   0.00000   0.00000   0.00000
  17  C 1   dzz      0.00000  -0.00419   0.00000  -0.00040   0.00000   0.00000
  18  C 2   s        0.00000   0.06390   0.00000  -0.00391   0.00000   0.00000
  19  C 2   s        0.00000  -0.13397   0.00000   0.01420   0.00000   0.00000
  20  C 2   px       0.00000   0.07716   0.00000   0.33476   0.00000   0.00000
  21  C 2   py       0.27113   0.00000  -0.09736   0.00000   0.00000   0.26233
  22  C 2   pz       0.00000   0.00000   0.00000   0.00000   0.23777   0.00000
  23  C 2   s        0.00000  -0.16890   0.00000   0.01767   0.00000   0.00000
  24  C 2   px       0.00000   0.03393   0.00000   0.12002   0.00000   0.00000
  25  C 2   py       0.08022   0.00000   0.01355   0.00000   0.00000   0.08882
  26  C 2   pz       0.00000   0.00000   0.00000   0.00000   0.13713   0.00000
  27  C 2   dxx      0.00000  -0.01021   0.00000  -0.01201   0.00000   0.00000
  28  C 2   dxy      0.00491   0.00000  -0.01406   0.00000   0.00000   0.01275
  29  C 2   dyy      0.00000   0.01484   0.00000   0.00493   0.00000   0.00000
  30  C 2   dxz      0.00000   0.00000   0.00000   0.00000   0.01234   0.00000
  31  C 2   dyz      0.00000   0.00000   0.00000   0.00000   0.00000   0.00000
  32  C 2   dzz      0.00000   0.00419   0.00000   0.00040   0.00000   0.00000
  33  C 3   s       -0.00197   0.05726   0.01487   0.01958   0.00000   0.00090
  34  C 3   s        0.00250  -0.12017  -0.03759  -0.04428   0.00000  -0.01011
  35  C 3   px       0.25367  -0.07014   0.15711   0.00601   0.00000  -0.01325
  36  C 3   py      -0.12709  -0.15209   0.22722   0.14773   0.00000   0.24749
  37  C 3   pz       0.00000   0.00000   0.00000   0.00000   0.21768   0.00000
  38  C 3   s        0.00754  -0.15898  -0.05131  -0.06475   0.00000   0.03165
  39  C 3   px       0.07748  -0.02868   0.03298   0.03751   0.00000  -0.01695
  40  C 3   py      -0.04007  -0.05755   0.09210   0.03432   0.00000   0.08400
  41  C 3   pz       0.00000   0.00000   0.00000   0.00000   0.12116   0.00000
  42  C 3   dxx     -0.00483   0.00660  -0.00502   0.01085   0.00000  -0.00011
  43  C 3   dxy     -0.00150  -0.01583   0.00179   0.00603   0.00000   0.01953
  44  C 3   dyy      0.00436  -0.00535   0.01179  -0.00630   0.00000   0.00785
  45  C 3   dxz      0.00000   0.00000   0.00000   0.00000  -0.00525   0.00000
  46  C 3   dyz      0.00000   0.00000   0.00000   0.00000  -0.01063   0.00000
  47  C 3   dzz      0.00035   0.00525   0.00081   0.00123   0.00000  -0.00113
  48  C 4   s        0.00197   0.05726  -0.01487   0.01958   0.00000  -0.00090
  49  C 4   s       -0.00250  -0.12017   0.03759  -0.04428   0.00000   0.01011
  50  C 4   px      -0.25367  -0.07014  -0.15711   0.00601   0.00000   0.01325
  51  C 4   py      -0.12709   0.15209   0.22722  -0.14773   0.00000   0.24749
  52  C 4   pz       0.00000   0.00000   0.00000   0.00000   0.21768   0.00000
  53  C 4   s       -0.00754  -0.15898   0.05131  -0.06475   0.00000  -0.03165
  54  C 4   px      -0.07748  -0.02868  -0.03298   0.03751   0.00000   0.01695
  55  C 4   py      -0.04007   0.05755   0.09210  -0.03432   0.00000   0.08400
  56  C 4   pz       0.00000   0.00000   0.00000   0.00000   0.12116   0.00000
  57  C 4   dxx      0.00483   0.00660   0.00502   0.01085   0.00000   0.00011
  58  C 4   dxy     -0.00150   0.01583   0.00179  -0.00603   0.00000   0.01953
  59  C 4   dyy     -0.00436  -0.00535  -0.01179  -0.00630   0.00000  -0.00785
  60  C 4   dxz      0.00000   0.00000   0.00000   0.00000  -0.00525   0.00000
  61  C 4   dyz      0.00000   0.00000   0.00000   0.00000   0.01063   0.00000
  62  C 4   dzz     -0.00035   0.00525  -0.00081   0.00123   0.00000   0.00113
  63  C 5   s        0.00197  -0.05726  -0.01487  -0.01958   0.00000   0.00090
  64  C 5   s       -0.00250   0.12017   0.03759   0.04428   0.00000  -0.01011
  65  C 5   px       0.25367  -0.07014   0.15711   0.00601   0.00000   0.01325
  66  C 5   py      -0.12709  -0.15209   0.22722   0.14773   0.00000  -0.24749
  67  C 5   pz       0.00000   0.00000   0.00000   0.00000   0.21768   0.00000
  68  C 5   s       -0.00754   0.15898   0.05131   0.06475   0.00000   0.03165
  69  C 5   px       0.07748  -0.02868   0.03298   0.03751   0.00000   0.01695
  70  C 5   py      -0.04007  -0.05755   0.09210   0.03432   0.00000  -0.08400
  71  C 5   pz       0.00000   0.00000   0.00000   0.00000   0.12116   0.00000
  72  C 5   dxx      0.00483  -0.00660   0.00502  -0.01085   0.00000  -0.00011
  73  C 5   dxy      0.00150   0.01583  -0.00179  -0.00603   0.00000   0.01953
  74  C 5   dyy     -0.00436   0.00535  -0.01179   0.00630   0.00000   0.00785
  75  C 5   dxz      0.00000   0.00000   0.00000   0.00000   0.00525   0.00000
  76  C 5   dyz      0.00000   0.00000   0.00000   0.00000   0.01063   0.00000
  77  C 5   dzz     -0.00035  -0.00525  -0.00081  -0.00123   0.00000  -0.00113
  78  C 6   s       -0.00197  -0.05726   0.01487  -0.01958   0.00000  -0.00090
  79  C 6   s        0.00250   0.12017  -0.03759   0.04428   0.00000   0.01011
  80  C 6   px      -0.25367  -0.07014  -0.15711   0.00601   0.00000  -0.01325
  81  C 6   py      -0.12709   0.15209   0.22722  -0.14773   0.00000  -0.24749
  82  C 6   pz       0.00000   0.00000   0.00000   0.00000   0.21768   0.00000
  83  C 6   s        0.00754   0.15898  -0.05131   0.06475   0.00000  -0.03165
  84  C 6   px      -0.07748  -0.02868  -0.03298   0.03751   0.00000  -0.01695
  85  C 6   py      -0.04007   0.05755   0.09210  -0.03432   0.00000  -0.08400
  86  C 6   pz       0.00000   0.00000   0.00000   0.00000   0.12116   0.00000
  87  C 6   dxx     -0.00483  -0.00660  -0.00502  -0.01085   0.00000   0.00011
  88  C 6   dxy      0.00150  -0.01583  -0.00179   0.00603   0.00000   0.01953
  89  C 6   dyy      0.00436   0.00535   0.01179   0.00630   0.00000  -0.00785
  90  C 6   dxz      0.00000   0.00000   0.00000   0.00000   0.00525   0.00000
  91  C 6   dyz      0.00000   0.00000   0.00000   0.00000  -0.01063   0.00000
  92  C 6   dzz      0.00035  -0.00525   0.00081  -0.00123   0.00000   0.00113
[...]
  31  C 2   dyz      0.00000   0.00000   0.00000   0.00000   0.00000   0.00000
  32  C 2   dzz      0.00429   0.00000   0.00000   0.00036   0.00000   0.00000
  33  C 3   s        0.05813  -0.00173   0.01494   0.01834   0.00000  -0.00139
  34  C 3   s       -0.12242   0.00195  -0.03771  -0.04174   0.00000   0.01110
  35  C 3   px      -0.06957   0.25467   0.15413   0.00724   0.00000   0.01393
  36  C 3   py      -0.14798  -0.12398   0.22801   0.15122   0.00000  -0.24734
  37  C 3   pz       0.00000   0.00000   0.00000   0.00000   0.21702   0.00000
  38  C 3   s       -0.16064   0.00673  -0.05158  -0.06086   0.00000  -0.02720
  39  C 3   px      -0.02692   0.07941   0.03336   0.03657   0.00000   0.01702
  40  C 3   py      -0.05522  -0.03985   0.09247   0.03702   0.00000  -0.08473
  41  C 3   pz       0.00000   0.00000   0.00000   0.00000   0.12298   0.00000
  42  C 3   dxx      0.00678  -0.00491  -0.00513   0.01021   0.00000   0.00038
  43  C 3   dxy     -0.01549  -0.00146   0.00220   0.00641   0.00000  -0.01935
  44  C 3   dyy     -0.00547   0.00448   0.01152  -0.00590   0.00000  -0.00757
  45  C 3   dxz      0.00000   0.00000   0.00000   0.00000  -0.00503   0.00000
  46  C 3   dyz      0.00000   0.00000   0.00000   0.00000  -0.01028   0.00000
  47  C 3   dzz      0.00541   0.00035   0.00078   0.00111   0.00000   0.00114
  48  C 4   s        0.05813   0.00173  -0.01494   0.01834   0.00000   0.00139
  49  C 4   s       -0.12242  -0.00195   0.03771  -0.04174   0.00000  -0.01110
  50  C 4   px      -0.06957  -0.25467  -0.15413   0.00724   0.00000  -0.01393
  51  C 4   py       0.14798  -0.12398   0.22801  -0.15122   0.00000  -0.24734
  52  C 4   pz       0.00000   0.00000   0.00000   0.00000   0.21702   0.00000
  53  C 4   s       -0.16064  -0.00673   0.05158  -0.06086   0.00000   0.02720
  54  C 4   px      -0.02692  -0.07941  -0.03336   0.03657   0.00000  -0.01702
  55  C 4   py       0.05522  -0.03985   0.09247  -0.03702   0.00000  -0.08473
  56  C 4   pz       0.00000   0.00000   0.00000   0.00000   0.12298   0.00000
  57  C 4   dxx      0.00678   0.00491   0.00513   0.01021   0.00000  -0.00038
  58  C 4   dxy      0.01549  -0.00146   0.00220  -0.00641   0.00000  -0.01935
  59  C 4   dyy     -0.00547  -0.00448  -0.01152  -0.00590   0.00000   0.00757
  60  C 4   dxz      0.00000   0.00000   0.00000   0.00000  -0.00503   0.00000
  61  C 4   dyz      0.00000   0.00000   0.00000   0.00000   0.01028   0.00000
  62  C 4   dzz      0.00541  -0.00035  -0.00078   0.00111   0.00000  -0.00114
  63  C 5   s       -0.05813   0.00173  -0.01494  -0.01834   0.00000  -0.00139
  64  C 5   s        0.12242  -0.00195   0.03771   0.04174   0.00000   0.01110
  65  C 5   px      -0.06957   0.25467   0.15413   0.00724   0.00000  -0.01393
  66  C 5   py      -0.14798  -0.12398   0.22801   0.15122   0.00000   0.24734
  67  C 5   pz       0.00000   0.00000   0.00000   0.00000   0.21702   0.00000
  68  C 5   s        0.16064  -0.00673   0.05158   0.06086   0.00000  -0.02720
  69  C 5   px      -0.02692   0.07941   0.03336   0.03657   0.00000  -0.01702
  70  C 5   py      -0.05522  -0.03985   0.09247   0.03702   0.00000   0.08473
  71  C 5   pz       0.00000   0.00000   0.00000   0.00000   0.12298   0.00000
  72  C 5   dxx     -0.00678   0.00491   0.00513  -0.01021   0.00000   0.00038
  73  C 5   dxy      0.01549   0.00146  -0.00220  -0.00641   0.00000  -0.01935
  74  C 5   dyy      0.00547  -0.00448  -0.01152   0.00590   0.00000  -0.00757
  75  C 5   dxz      0.00000   0.00000   0.00000   0.00000   0.00503   0.00000
  76  C 5   dyz      0.00000   0.00000   0.00000   0.00000   0.01028   0.00000
  77  C 5   dzz     -0.00541  -0.00035  -0.00078  -0.00111   0.00000   0.00114
  78  C 6   s       -0.05813  -0.00173   0.01494  -0.01834   0.00000   0.00139
  79  C 6   s        0.12242   0.00195  -0.03771   0.04174   0.00000  -0.01110
  80  C 6   px      -0.06957  -0.25467  -0.15413   0.00724   0.00000   0.01393
  81  C 6   py       0.14798  -0.12398   0.22801  -0.15122   0.00000   0.24734
  82  C 6   pz       0.00000   0.00000   0.00000   0.00000   0.21702   0.00000
  83  C 6   s        0.16064   0.00673  -0.05158   0.06086   0.00000   0.02720
  84  C 6   px      -0.02692  -0.07941  -0.03336   0.03657   0.00000   0.01702
  85  C 6   py       0.05522  -0.03985   0.09247  -0.03702   0.00000   0.08473
  86  C 6   pz       0.00000   0.00000   0.00000   0.00000   0.12298   0.00000
  87  C 6   dxx     -0.00678  -0.00491  -0.00513  -0.01021   0.00000  -0.00038
  88  C 6   dxy     -0.01549   0.00146  -0.00220   0.00641   0.00000  -0.01935
  89  C 6   dyy      0.00547   0.00448   0.01152   0.00590   0.00000   0.00757
  90  C 6   dxz      0.00000   0.00000   0.00000   0.00000   0.00503   0.00000
  91  C 6   dyz      0.00000   0.00000   0.00000   0.00000  -0.01028   0.00000
  92  C 6   dzz     -0.00541   0.00035   0.00078  -0.00111   0.00000  -0.00114
  93  H 2   s       -0.15109   0.01307   0.14365   0.05952   0.00000  -0.14787
  94  H 2   s       -0.07966   0.00864   0.09916   0.04434   0.00000  -0.12569
  95  H 3   s       -0.15109  -0.01307  -0.14365   0.05952   0.00000   0.14787
  96  H 3   s       -0.07966  -0.00864  -0.09916   0.04434   0.00000   0.12569
  97  H 4   s        0.15109  -0.01307  -0.14365  -0.05952   0.00000  -0.14787
  98  H 4   s        0.07966  -0.00864  -0.09916  -0.04434   0.00000  -0.12569
  99  H 5   s        0.15109   0.01307   0.14365  -0.05952   0.00000   0.14787
 100  H 5   s        0.07966   0.00864   0.09916  -0.04434   0.00000   0.12569
 101  H 6   s       -0.10955   0.00000   0.00000  -0.18621   0.00000   0.00000
 102  H 6   s       -0.05231   0.00000   0.00000  -0.12683   0.00000   0.00000
                        19        20        21        22        23        24
 eigenvalues:         -0.567    -0.470    -0.413    -0.217    -0.213    -0.098
   1  H 1   s       -0.17621   0.00000   0.00000   0.00000   0.00000   0.07783
   2  H 1   s       -0.14620   0.00000   0.00000   0.00000   0.00000   0.65523
   3  C 1   s        0.00428   0.00000   0.00000   0.00000   0.00000   0.03618
   4  C 1   s       -0.00014   0.00000   0.00000   0.00000   0.00000  -0.08081
   5  C 1   px      -0.24596   0.00000   0.00000   0.00000   0.00000  -0.10625
   6  C 1   py       0.00000   0.00000   0.00000   0.00000   0.00000   0.00000
   7  C 1   pz       0.00000   0.35183   0.00000   0.37219   0.00000   0.00000
   8  C 1   s       -0.04712   0.00000   0.00000   0.00000   0.00000  -0.44039
   9  C 1   px      -0.08054   0.00000   0.00000   0.00000   0.00000  -0.25061
  10  C 1   py       0.00000   0.00000   0.00000   0.00000   0.00000   0.00000
  11  C 1   pz       0.00000   0.23905   0.00000   0.45150   0.00000   0.00000
  12  C 1   dxx     -0.02226   0.00000   0.00000   0.00000   0.00000   0.02446
  13  C 1   dxy      0.00000   0.00000   0.00000   0.00000   0.00000   0.00000
  14  C 1   dyy      0.01509   0.00000   0.00000   0.00000   0.00000  -0.01670
  15  C 1   dxz      0.00000  -0.00807   0.00000   0.00898   0.00000   0.00000
  16  C 1   dyz      0.00000   0.00000  -0.01945   0.00000  -0.03121   0.00000
  17  C 1   dzz      0.00130   0.00000   0.00000   0.00000   0.00000  -0.00314
  18  C 2   s        0.00428   0.00000   0.00000   0.00000   0.00000   0.03618
  19  C 2   s       -0.00014   0.00000   0.00000   0.00000   0.00000  -0.08081
  20  C 2   px       0.24596   0.00000   0.00000   0.00000   0.00000   0.10625
  21  C 2   py       0.00000   0.00000   0.00000   0.00000   0.00000   0.00000
  22  C 2   pz       0.00000  -0.35183   0.00000   0.37219   0.00000   0.00000
  23  C 2   s       -0.04712   0.00000   0.00000   0.00000   0.00000  -0.44039
  24  C 2   px       0.08054   0.00000   0.00000   0.00000   0.00000   0.25061
  25  C 2   py       0.00000   0.00000   0.00000   0.00000   0.00000   0.00000
  26  C 2   pz       0.00000  -0.23905   0.00000   0.45150   0.00000   0.00000
  27  C 2   dxx     -0.02226   0.00000   0.00000   0.00000   0.00000   0.02446
  28  C 2   dxy      0.00000   0.00000   0.00000   0.00000   0.00000   0.00000
  29  C 2   dyy      0.01509   0.00000   0.00000   0.00000   0.00000  -0.01670
  30  C 2   dxz      0.00000  -0.00807   0.00000  -0.00898   0.00000   0.00000
  31  C 2   dyz      0.00000   0.00000  -0.01945   0.00000   0.03121   0.00000
  32  C 2   dzz      0.00130   0.00000   0.00000   0.00000   0.00000  -0.00314
  33  C 3   s       -0.00165   0.00000   0.00000   0.00000   0.00000   0.03994
  34  C 3   s       -0.00225   0.00000   0.00000   0.00000   0.00000  -0.08788
  35  C 3   px       0.25172   0.00000   0.00000   0.00000   0.00000  -0.06448
  36  C 3   py      -0.01495   0.00000   0.00000   0.00000   0.00000  -0.10673
  37  C 3   pz       0.00000   0.16935  -0.29647  -0.19276  -0.32459   0.00000
  38  C 3   s        0.01936   0.00000   0.00000   0.00000   0.00000  -0.50501
  39  C 3   px       0.08671   0.00000   0.00000   0.00000   0.00000  -0.15176
  40  C 3   py      -0.01227   0.00000   0.00000   0.00000   0.00000  -0.24557
  41  C 3   pz       0.00000   0.11595  -0.20937  -0.23473  -0.39961   0.00000
  42  C 3   dxx     -0.01183   0.00000   0.00000   0.00000   0.00000  -0.00687
  43  C 3   dxy      0.00541   0.00000   0.00000   0.00000   0.00000   0.02128
  44  C 3   dyy      0.01477   0.00000   0.00000   0.00000   0.00000   0.01320
  45  C 3   dxz      0.00000   0.01245   0.01119   0.02156  -0.01726   0.00000
  46  C 3   dyz      0.00000  -0.01161  -0.00044  -0.01750   0.00031   0.00000
  47  C 3   dzz     -0.00025   0.00000   0.00000   0.00000   0.00000  -0.00188
  48  C 4   s       -0.00165   0.00000   0.00000   0.00000   0.00000   0.03994
  49  C 4   s       -0.00225   0.00000   0.00000   0.00000   0.00000  -0.08788
  50  C 4   px       0.25172   0.00000   0.00000   0.00000   0.00000  -0.06448
  51  C 4   py       0.01495   0.00000   0.00000   0.00000   0.00000   0.10673
  52  C 4   pz       0.00000   0.16935   0.29647  -0.19276   0.32459   0.00000
  53  C 4   s        0.01936   0.00000   0.00000   0.00000   0.00000  -0.50501
  54  C 4   px       0.08671   0.00000   0.00000   0.00000   0.00000  -0.15176
  55  C 4   py       0.01227   0.00000   0.00000   0.00000   0.00000   0.24557
  56  C 4   pz       0.00000   0.11595   0.20937  -0.23473   0.39961   0.00000
  57  C 4   dxx     -0.01183   0.00000   0.00000   0.00000   0.00000  -0.00687
  58  C 4   dxy     -0.00541   0.00000   0.00000   0.00000   0.00000  -0.02128
  59  C 4   dyy      0.01477   0.00000   0.00000   0.00000   0.00000   0.01320
  60  C 4   dxz      0.00000   0.01245  -0.01119   0.02156   0.01726   0.00000
  61  C 4   dyz      0.00000   0.01161  -0.00044   0.01750   0.00031   0.00000
  62  C 4   dzz     -0.00025   0.00000   0.00000   0.00000   0.00000  -0.00188
  63  C 5   s       -0.00165   0.00000   0.00000   0.00000   0.00000   0.03994
  64  C 5   s       -0.00225   0.00000   0.00000   0.00000   0.00000  -0.08788
  65  C 5   px      -0.25172   0.00000   0.00000   0.00000   0.00000   0.06448
  66  C 5   py       0.01495   0.00000   0.00000   0.00000   0.00000   0.10673
  67  C 5   pz       0.00000  -0.16935   0.29647  -0.19276  -0.32459   0.00000
  68  C 5   s        0.01936   0.00000   0.00000   0.00000   0.00000  -0.50501
  69  C 5   px      -0.08671   0.00000   0.00000   0.00000   0.00000   0.15176
  70  C 5   py       0.01227   0.00000   0.00000   0.00000   0.00000   0.24557
  71  C 5   pz       0.00000  -0.11595   0.20937  -0.23473  -0.39961   0.00000
  72  C 5   dxx     -0.01183   0.00000   0.00000   0.00000   0.00000  -0.00687
  73  C 5   dxy      0.00541   0.00000   0.00000   0.00000   0.00000   0.02128
  74  C 5   dyy      0.01477   0.00000   0.00000   0.00000   0.00000   0.01320
  75  C 5   dxz      0.00000   0.01245   0.01119  -0.02156   0.01726   0.00000
  76  C 5   dyz      0.00000  -0.01161  -0.00044   0.01750  -0.00031   0.00000
  77  C 5   dzz     -0.00025   0.00000   0.00000   0.00000   0.00000  -0.00188
  78  C 6   s       -0.00165   0.00000   0.00000   0.00000   0.00000   0.03994
  79  C 6   s       -0.00225   0.00000   0.00000   0.00000   0.00000  -0.08788
  80  C 6   px      -0.25172   0.00000   0.00000   0.00000   0.00000   0.06448
  81  C 6   py      -0.01495   0.00000   0.00000   0.00000   0.00000  -0.10673
  82  C 6   pz       0.00000  -0.16935  -0.29647  -0.19276   0.32459   0.00000
  83  C 6   s        0.01936   0.00000   0.00000   0.00000   0.00000  -0.50501
  84  C 6   px      -0.08671   0.00000   0.00000   0.00000   0.00000   0.15176
  85  C 6   py      -0.01227   0.00000   0.00000   0.00000   0.00000  -0.24557
  86  C 6   pz       0.00000  -0.11595  -0.20937  -0.23473   0.39961   0.00000
  87  C 6   dxx     -0.01183   0.00000   0.00000   0.00000   0.00000  -0.00687
  88  C 6   dxy     -0.00541   0.00000   0.00000   0.00000   0.00000  -0.02128
  89  C 6   dyy      0.01477   0.00000   0.00000   0.00000   0.00000   0.01320
  90  C 6   dxz      0.00000   0.01245  -0.01119  -0.02156  -0.01726   0.00000
  91  C 6   dyz      0.00000   0.01161  -0.00044  -0.01750  -0.00031   0.00000
  92  C 6   dzz     -0.00025   0.00000   0.00000   0.00000   0.00000  -0.00188
  93  H 2   s        0.08495   0.00000   0.00000   0.00000   0.00000   0.08122
  94  H 2   s        0.07375   0.00000   0.00000   0.00000   0.00000   0.73011
  95  H 3   s        0.08495   0.00000   0.00000   0.00000   0.00000   0.08122
  96  H 3   s        0.07375   0.00000   0.00000   0.00000   0.00000   0.73011
  97  H 4   s        0.08495   0.00000   0.00000   0.00000   0.00000   0.08122
  98  H 4   s        0.07375   0.00000   0.00000   0.00000   0.00000   0.73011
  99  H 5   s        0.08495   0.00000   0.00000   0.00000   0.00000   0.08122
 100  H 5   s        0.07375   0.00000   0.00000   0.00000   0.00000   0.73011
 101  H 6   s       -0.17621   0.00000   0.00000   0.00000   0.00000   0.07783
 102  H 6   s       -0.14620   0.00000   0.00000   0.00000   0.00000   0.65523
                        25
 eigenvalues:         -0.061
   1  H 1   s        0.00000
   2  H 1   s        0.00000
   3  C 1   s        0.00000
   4  C 1   s        0.00000
   5  C 1   px       0.00000
   6  C 1   py       0.00000
   7  C 1   pz      -0.30169
   8  C 1   s        0.00000
   9  C 1   px       0.00000
  10  C 1   py       0.00000
  11  C 1   pz      -0.49032
  12  C 1   dxx      0.00000
  13  C 1   dxy      0.00000
  14  C 1   dyy      0.00000
  15  C 1   dxz     -0.01565
  16  C 1   dyz      0.00000
  17  C 1   dzz      0.00000
  18  C 2   s        0.00000
  19  C 2   s        0.00000
  20  C 2   px       0.00000
  21  C 2   py       0.00000
  22  C 2   pz       0.30169
  23  C 2   s        0.00000
  24  C 2   px       0.00000
  25  C 2   py       0.00000
  26  C 2   pz       0.49032
  27  C 2   dxx      0.00000
  28  C 2   dxy      0.00000
  29  C 2   dyy      0.00000
  30  C 2   dxz     -0.01565
  31  C 2   dyz      0.00000
  32  C 2   dzz      0.00000
  33  C 3   s        0.00000
  34  C 3   s        0.00000
  35  C 3   px       0.00000
  36  C 3   py       0.00000
  37  C 3   pz       0.30336
  38  C 3   s        0.00000
  39  C 3   px       0.00000
  40  C 3   py       0.00000
  41  C 3   pz       0.49823
  42  C 3   dxx      0.00000
  43  C 3   dxy      0.00000
  44  C 3   dyy      0.00000
  45  C 3   dxz      0.00801
  46  C 3   dyz      0.01468
  47  C 3   dzz      0.00000
  48  C 4   s        0.00000
  49  C 4   s        0.00000
  50  C 4   px       0.00000
  51  C 4   py       0.00000
  52  C 4   pz       0.30336
  53  C 4   s        0.00000
  54  C 4   px       0.00000
  55  C 4   py       0.00000
  56  C 4   pz       0.49823
  57  C 4   dxx      0.00000
  58  C 4   dxy      0.00000
  59  C 4   dyy      0.00000
  60  C 4   dxz      0.00801
  61  C 4   dyz     -0.01468
  62  C 4   dzz      0.00000
  63  C 5   s        0.00000
  64  C 5   s        0.00000
  65  C 5   px       0.00000
  66  C 5   py       0.00000
  67  C 5   pz      -0.30336
  68  C 5   s        0.00000
  69  C 5   px       0.00000
  70  C 5   py       0.00000
  71  C 5   pz      -0.49823
  72  C 5   dxx      0.00000
  73  C 5   dxy      0.00000
  74  C 5   dyy      0.00000
  75  C 5   dxz      0.00801
  76  C 5   dyz      0.01468
  77  C 5   dzz      0.00000
  78  C 6   s        0.00000
  79  C 6   s        0.00000
  80  C 6   px       0.00000
  81  C 6   py       0.00000
  82  C 6   pz      -0.30336
  83  C 6   s        0.00000
  84  C 6   px       0.00000
  85  C 6   py       0.00000
  86  C 6   pz      -0.49823
  87  C 6   dxx      0.00000
  88  C 6   dxy      0.00000
  89  C 6   dyy      0.00000
  90  C 6   dxz      0.00801
  91  C 6   dyz     -0.01468
  92  C 6   dzz      0.00000
  93  H 2   s        0.00000
  94  H 2   s        0.00000
  95  H 3   s        0.00000
  96  H 3   s        0.00000
  97  H 4   s        0.00000
  98  H 4   s        0.00000
  99  H 5   s        0.00000
 100  H 5   s        0.00000
 101  H 6   s        0.00000
 102  H 6   s        0.00000
 
          Ground-State Mulliken Net Atomic Charges

     Atom                 Charge (a.u.)    Spin (a.u.)
  --------------------------------------------------------
      1 H                     0.234118       0.003617
      2 C                    -0.114907      -0.140172
      3 C                    -0.114907      -0.140172
      4 C                    -0.059846       0.332443
      5 C                    -0.059846       0.332443
      6 C                    -0.059846       0.332443
      7 C                    -0.059846       0.332443
      8 H                     0.250241      -0.014166
      9 H                     0.250241      -0.014166
     10 H                     0.250241      -0.014166
     11 H                     0.250241      -0.014166
     12 H                     0.234118       0.003617
  --------------------------------------------------------
  Sum of atomic charges =     1.000000
  Sum of spin   charges =     1.000000

 -----------------------------------------------------------------
                    Cartesian Multipole Moments
 -----------------------------------------------------------------
    Charge (ESU x 10^10)
                 4.8032
    Dipole Moment (Debye)
         X       0.0000      Y       0.0000      Z       0.0000
       Tot       0.0000
    Quadrupole Moments (Debye-Ang)
        XX     -21.4110     XY       0.0000     YY     -18.1621
        XZ       0.0000     YZ       0.0000     ZZ     -34.8815
    Octapole Moments (Debye-Ang^2)
       XXX       0.0000    XXY       0.0000    XYY       0.0000
       YYY       0.0000    XXZ       0.0000    XYZ       0.0000
       YYZ       0.0000    XZZ       0.0000    YZZ       0.0000
       ZZZ       0.0000
    Hexadecapole Moments (Debye-Ang^3)
      XXXX    -216.8900   XXXY       0.0000   XXYY     -68.8626
      XYYY       0.0000   YYYY    -204.0273   XXXZ       0.0000
      XXYZ       0.0000   XYYZ       0.0000   YYYZ       0.0000
      XXZZ     -55.8885   XYZZ       0.0000   YYZZ     -52.8654
      XZZZ       0.0000   YZZZ       0.0000   ZZZZ     -34.2750
 -----------------------------------------------------------------
Archival summary:
1\1\node08\OPT\ProcedureUnspecified\6-31G*\C6H6(1+,2)\rkanters\2009Wed42009\0\\#,OPT,ProcedureUnspecified,6-31G*,\\1,2\C\H,1,1.08572\C,1,1.41129,2,120\H,3,1.08572,1,120,2,0,0\C,3,1.41129,1,120,2,-180,0\H,5,1.08572,3,120,1,-180,0\C,1,1.41129,2,120,3,-180,0\H,7,1.08572,1,120,2,0,0\C,7,1.41129,1,120,2,-180,0\H,9,1.08572,7,120,1,-180,0\C,9,1.41129,7,120,1,0,0\H,11,1.08572,9,120,7,-180,0\\\@

 Total job time:  107.09s(wall), 138.94s(cpu) 
 Wed Mar  4 18:00:00 2009

        *************************************************************
        *                                                           *
        *  Thank you very much for using Q-Chem.  Have a nice day.  *
        *                                                           *
        *************************************************************


0 sent ACK to 0 
now end server 0 ... 
