Process 0 of 1 is on node08 - thread support 1
initial socket setup ...start
initial socket setup ...done 
now start server 0 ... 
                  Welcome to Q-Chem
     A Quantum Leap Into The Future Of Chemistry

 Y. Shao, L. Fusti-Molnar, Y. Jung, J. Kussmann, C. Ochsenfeld,
 S. T. Brown, A. T. B. Gilbert, L. V. Slipchenko,S. V. Levchenko,
 D. P. O'Neill, R. A. DiStasio Jr., R. C. Lochan, T. Wang,
 G. J. O. Beran, N. A. Besley, J. M. Herbert, C. Y. Lin,
 T. Van Voorhis, S. H. Chien, A. Sodt, R. P. Steele, 
 V. A. Rassolov, P. E. Maslen, P. P. Korambath, R. D. Adamson,
 B. Austin, J. Baker, E. F. C. Byrd, H. Dachsel, R. J. Doerksen,
 A. Dreuw, B. D. Dunietz, A. D. Dutoi, T. R. Furlani,
 S. R. Gwaltney, A. Heyden, S. Hirata, C.-P. Hsu, G. Kedziora,
 R. Z. Khaliullin, P. Klunzinger, A. M. Lee, M. S. Lee, W. Liang,
 I. Lotan, N. Nair, B. Peters, E. I. Proynov, P. A. Pieniazek, 
 Y. M. Rhee, J. Ritchie, E. Rosta, C. D. Sherrill, 
 A. C. Simmonett, J. E. Subotnik, H. L. Woodcock III,
 W. Zhang, A. T. Bell, A. K. Chakraborty, D. M. Chipman,
 F. J. Keil, A. Warshel, W. J. Hehre, H. F. Schaefer III,
 J. Kong, A. I. Krylov, P. M. W. Gill, M. Head-Gordon,
 Q-Chem, Version 3.1, Q-Chem, Inc., Pittsburgh, PA (2007).

 Additional authors for Version 3.1: 
 Z. Gan, Y. Zhao, N. E. Schultz, D. Truhlar, E. Epifanovsky and M. Oana.

 Additional authors for Version 3.2: 
 R. Baer, B. R. Brooks, D. Casanova, J.-D. Chai, C.-L. Cheng, 
 C. Cramer, D. Crittenden, A. Ghysels, G. Hawkins, E. G. Hohenstein, 
 C. Kelley, W. Kurlancheek, D. Liotard, E. Livshits, P. Manohar, 
 A. Marenich, D. Neuhauser, R. Olson, M. A. Rohrdanz, K. S. Thanthiriwatte, 
 A. J. W. Thom, V. Vanovschi, C. F. Williams, Q. Wu and Z.-Q. You. 


 Intel X86 EM64T Linux Version

 Q-chem begins on Wed Mar  4 17:56:43 2009  

 Parallel job on  1  processors
Processing $rem in /usr/local/qchem3201/config/preferences.

theFileMan(): MAXOPENFILES=974 MAX_SUB_FILE_NUM=16
Maximum size of a physical file is 2.0 GB, maximum size of a tmp-file is 32.0 GB


--------------------------------------------------------------
User input:
--------------------------------------------------------------
$comment
  benzene RB3LYP/6-31G*
$end

$molecule
0 1
 H   0.000000000   0.000000000  -0.019769085
 C   0.000000000   0.000000000   1.066960921
 C   0.000000000  -0.000000000   3.856612746
 C   0.000000000  -1.207954674   1.764373877
 C   0.000000000   1.207954674   1.764373877
 C   0.000000000   1.207954674   3.159199790
 C   0.000000000  -1.207954674   3.159199790
 H   0.000000000  -2.149090467   1.221008874
 H   0.000000000   2.149090467   1.221008874
 H   0.000000000   2.149090467   3.702564793
 H   0.000000000  -2.149090467   3.702564793
 H   0.000000000  -0.000000000   4.943342752
$end

$rem
  jobtype             OPT
  exchange            B3LYP
  basis               6-31G*
  unrestricted        FALSE
  print_general_basis TRUE
  print_orbitals      TRUE
$end

--------------------------------------------------------------
 Writing REM_CC_EA            0
 ----------------------------------------------------
       Standard Nuclear Orientation (Angstroms)
    I     Atom         X            Y            Z
 ----------------------------------------------------
    1      H       2.481556     0.000000     0.000000
    2      C       1.394826     0.000000     0.000000
    3      C      -1.394826     0.000000     0.000000
    4      C       0.697413     1.207955     0.000000
    5      C       0.697413    -1.207955     0.000000
    6      C      -0.697413    -1.207955     0.000000
    7      C      -0.697413     1.207955     0.000000
    8      H       1.240778     2.149090     0.000000
    9      H       1.240778    -2.149090     0.000000
   10      H      -1.240778    -2.149090     0.000000
   11      H      -1.240778     2.149090     0.000000
   12      H      -2.481556     0.000000     0.000000
 ----------------------------------------------------
 Molecular Point Group                 D6h   NOp = 24
 Largest Abelian Subgroup              D2h   NOp =  8
 Nuclear Repulsion Energy =   203.4161024897 hartrees
 There are       21 alpha and       21 beta electrons

 Q-Chem warning in module snoman.F, line  300, PE  0:

 turning symmetry off for DFT job

 Requested basis set is 6-31G(d)
Basis set in general basis input format:
-----------------------------------------------------------------------
$basis
H    0
S    3    1.000000
   1.87311370E+01    3.34946000E-02 
   2.82539370E+00    2.34726950E-01 
   6.40121700E-01    8.13757330E-01 
S    1    1.000000
   1.61277800E-01    1.00000000E+00 
****
C    0
S    6    1.000000
   3.04752490E+03    1.83470000E-03 
   4.57369510E+02    1.40373000E-02 
   1.03948690E+02    6.88426000E-02 
   2.92101550E+01    2.32184400E-01 
   9.28666300E+00    4.67941300E-01 
   3.16392700E+00    3.62312000E-01 
SP   3    1.000000
   7.86827240E+00   -1.19332400E-01   6.89991000E-02 
   1.88128850E+00   -1.60854200E-01   3.16424000E-01 
   5.44249300E-01    1.14345640E+00   7.44308300E-01 
SP   1    1.000000
   1.68714400E-01    1.00000000E+00   1.00000000E+00 
D    1    1.000000
   8.00000000E-01    1.00000000E+00 
****
C    0
S    6    1.000000
   3.04752490E+03    1.83470000E-03 
   4.57369510E+02    1.40373000E-02 
   1.03948690E+02    6.88426000E-02 
   2.92101550E+01    2.32184400E-01 
   9.28666300E+00    4.67941300E-01 
   3.16392700E+00    3.62312000E-01 
SP   3    1.000000
   7.86827240E+00   -1.19332400E-01   6.89991000E-02 
   1.88128850E+00   -1.60854200E-01   3.16424000E-01 
   5.44249300E-01    1.14345640E+00   7.44308300E-01 
SP   1    1.000000
   1.68714400E-01    1.00000000E+00   1.00000000E+00 
D    1    1.000000
   8.00000000E-01    1.00000000E+00 
****
C    0
S    6    1.000000
   3.04752490E+03    1.83470000E-03 
   4.57369510E+02    1.40373000E-02 
   1.03948690E+02    6.88426000E-02 
   2.92101550E+01    2.32184400E-01 
   9.28666300E+00    4.67941300E-01 
   3.16392700E+00    3.62312000E-01 
SP   3    1.000000
   7.86827240E+00   -1.19332400E-01   6.89991000E-02 
   1.88128850E+00   -1.60854200E-01   3.16424000E-01 
   5.44249300E-01    1.14345640E+00   7.44308300E-01 
SP   1    1.000000
   1.68714400E-01    1.00000000E+00   1.00000000E+00 
D    1    1.000000
   8.00000000E-01    1.00000000E+00 
****
C    0
S    6    1.000000
   3.04752490E+03    1.83470000E-03 
   4.57369510E+02    1.40373000E-02 
   1.03948690E+02    6.88426000E-02 
   2.92101550E+01    2.32184400E-01 
   9.28666300E+00    4.67941300E-01 
   3.16392700E+00    3.62312000E-01 
SP   3    1.000000
   7.86827240E+00   -1.19332400E-01   6.89991000E-02 
   1.88128850E+00   -1.60854200E-01   3.16424000E-01 
   5.44249300E-01    1.14345640E+00   7.44308300E-01 
SP   1    1.000000
   1.68714400E-01    1.00000000E+00   1.00000000E+00 
D    1    1.000000
   8.00000000E-01    1.00000000E+00 
****
C    0
S    6    1.000000
   3.04752490E+03    1.83470000E-03 
   4.57369510E+02    1.40373000E-02 
   1.03948690E+02    6.88426000E-02 
   2.92101550E+01    2.32184400E-01 
   9.28666300E+00    4.67941300E-01 
   3.16392700E+00    3.62312000E-01 
SP   3    1.000000
   7.86827240E+00   -1.19332400E-01   6.89991000E-02 
   1.88128850E+00   -1.60854200E-01   3.16424000E-01 
   5.44249300E-01    1.14345640E+00   7.44308300E-01 
SP   1    1.000000
   1.68714400E-01    1.00000000E+00   1.00000000E+00 
D    1    1.000000
   8.00000000E-01    1.00000000E+00 
****
C    0
S    6    1.000000
   3.04752490E+03    1.83470000E-03 
   4.57369510E+02    1.40373000E-02 
   1.03948690E+02    6.88426000E-02 
   2.92101550E+01    2.32184400E-01 
   9.28666300E+00    4.67941300E-01 
   3.16392700E+00    3.62312000E-01 
SP   3    1.000000
   7.86827240E+00   -1.19332400E-01   6.89991000E-02 
   1.88128850E+00   -1.60854200E-01   3.16424000E-01 
   5.44249300E-01    1.14345640E+00   7.44308300E-01 
SP   1    1.000000
   1.68714400E-01    1.00000000E+00   1.00000000E+00 
D    1    1.000000
   8.00000000E-01    1.00000000E+00 
****
H    0
S    3    1.000000
   1.87311370E+01    3.34946000E-02 
   2.82539370E+00    2.34726950E-01 
   6.40121700E-01    8.13757330E-01 
S    1    1.000000
   1.61277800E-01    1.00000000E+00 
****
H    0
S    3    1.000000
   1.87311370E+01    3.34946000E-02 
   2.82539370E+00    2.34726950E-01 
   6.40121700E-01    8.13757330E-01 
S    1    1.000000
   1.61277800E-01    1.00000000E+00 
****
H    0
S    3    1.000000
   1.87311370E+01    3.34946000E-02 
   2.82539370E+00    2.34726950E-01 
   6.40121700E-01    8.13757330E-01 
S    1    1.000000
   1.61277800E-01    1.00000000E+00 
****
H    0
S    3    1.000000
   1.87311370E+01    3.34946000E-02 
   2.82539370E+00    2.34726950E-01 
   6.40121700E-01    8.13757330E-01 
S    1    1.000000
   1.61277800E-01    1.00000000E+00 
****
H    0
S    3    1.000000
   1.87311370E+01    3.34946000E-02 
   2.82539370E+00    2.34726950E-01 
   6.40121700E-01    8.13757330E-01 
S    1    1.000000
   1.61277800E-01    1.00000000E+00 
****
$end
-----------------------------------------------------------------------
 There are 36 shells and 102 basis functions

Total QAlloc Memory Limit   2000 MB
Mega-Array Size        61 MB
MEM_STATIC part        62 MB
 A cutoff of  1.0D-11 yielded    648 shell pairs
 There are   5397 function pairs
Evaluating contribution to one-electron hamiltonian from nuclear
 Smallest overlap matrix eigenvalue = 5.15E-04
 Multipole matrices computed through 2nd order

  Scale SEOQF with 1.000000e-01/1.000000e-01/1.000000e+00

 Standard Electronic Orientation quadrupole field applied
 Nucleus-field energy     =     0.0000000057 hartrees
 Guess from superposition of atomic densities
 Warning:  Energy on first SCF cycle will be non-variational
 A restricted hybrid HF-DFT SCF calculation will be
 performed using Pulay DIIS extrapolation
 Exchange:     0.2000 Hartree-Fock + 0.0800 Slater + 0.7200 Becke
 Correlation:  0.8100 LYP + 0.1900 VWN1RPA
 Using SG-1 standard quadrature grid
 SCF converges when DIIS error is below 1.0E-08
 ---------------------------------------
  Cycle       Energy         DIIS Error
 ---------------------------------------
    1    -233.5222855428      7.91E-02
    2    -232.1544957784      7.91E-03
    3    -232.1549413606      8.16E-03
    4    -232.2484194363      4.78E-04
    5    -232.2486737369      6.67E-05
    6    -232.2486793705      1.99E-06
    7    -232.2486793791      2.50E-07
    8    -232.2486793792      2.97E-08
    9    -232.2486793794      2.77E-08
   10    -232.2486793796      6.19E-10 Convergence criterion met
 ---------------------------------------
 SCF time:  CPU 33.15 s  wall 21.35 s
 Analysis of SCF Wavefunction
 
 --------------------------------------------------------------
             Orbital Energies (a.u.) and Symmetries
 --------------------------------------------------------------
 
 Alpha MOs, Restricted
 -- Occupied --                  
-10.187 -10.187 -10.187 -10.186 -10.186 -10.186  -0.847  -0.740
  1 A1g   1 E1u   1 E1u   1 E2g   1 E2g   1 B1u   2 A1g   2 E1u                
 -0.740  -0.598  -0.598  -0.519  -0.459  -0.439  -0.417  -0.417
  2 E1u   2 E2g   2 E2g   3 A1g   2 B1u   1 B2u   3 E1u   3 E1u                
 -0.360  -0.340  -0.340  -0.247  -0.246
  1 A2u   3 E2g   3 E2g   1 E1g   1 E1g                                        
 -- Virtual --                   
  0.004   0.004   0.091   0.145   0.145   0.165   0.182   0.182
  1 E2u   1 E2u   4 A1g   4 E1u   4 E1u   1 B2g   4 E2g   4 E2g                
  0.191   0.303   0.303   0.320   0.320   0.474   0.527   0.550
  3 B1u   5 E2g   5 E2g   5 E1u   5 E1u   2 B2u   2 A2u   5 A1g                
  0.551   0.566   0.593   0.602   0.602   0.603   0.603   0.627
  4 B1u   1 A2g   6 A1g   2 E1g   2 E1g   6 E2g   6 E2g   6 E1u                
  0.627   0.668   0.668   0.745   0.840   0.840   0.842   0.865
  6 E1u   2 E2u   2 E2u   2 B2g   7 E2g   7 E2g   5 B1u   7 E1u                
  0.865   0.940   0.940   0.941   0.959   1.083   1.083   1.144
  7 E1u   8 E1u   8 E1u   7 A1g   2 A2g   8 E2g   8 E2g   9 E1u                
  1.144   1.202   1.262   1.396   1.437   1.437   1.488   1.488
  9 E1u   6 B1u   1 B1g   3 A2u   9 E2g   9 E2g   3 E2u   3 E2u                
  1.516   1.516   1.757   1.791   1.858   1.898   1.975   1.975
  3 E1g   3 E1g   8 A1g   3 B2u   9 A1g   7 B1u  10 E1u  10 E1u                
  2.069   2.069   2.153   2.153   2.157   2.157   2.311   2.311
 10 E2g  10 E2g   4 E2u   4 E2u  11 E1u  11 E1u   4 E1g   4 E1g                
  2.324   2.547   2.547   2.660   2.709   2.709   2.724   2.724
  3 B2g  11 E2g  11 E2g   1 A1u  12 E2g  12 E2g  12 E1u  12 E1u                
  2.761   3.019   3.416   4.087   4.118   4.118   4.331   4.331
  8 B1u   3 A2g   9 B1u  10 A1g  13 E1u  13 E1u  13 E2g  13 E2g                
  4.668
 10 B1u                                                                        
 
 Beta MOs, Restricted
 -- Occupied --                  
-10.187 -10.187 -10.187 -10.186 -10.186 -10.186  -0.847  -0.740
  1 A1g   1 E1u   1 E1u   1 E2g   1 E2g   1 B1u   2 A1g   2 E1u                
 -0.740  -0.598  -0.598  -0.519  -0.459  -0.439  -0.417  -0.417
  2 E1u   2 E2g   2 E2g   3 A1g   2 B1u   1 B2u   3 E1u   3 E1u                
 -0.360  -0.340  -0.340  -0.247  -0.246
  1 A2u   3 E2g   3 E2g   1 E1g   1 E1g                                        
 -- Virtual --                   
  0.004   0.004   0.091   0.145   0.145   0.165   0.182   0.182
  1 E2u   1 E2u   4 A1g   4 E1u   4 E1u   1 B2g   4 E2g   4 E2g                
  0.191   0.303   0.303   0.320   0.320   0.474   0.527   0.550
  3 B1u   5 E2g   5 E2g   5 E1u   5 E1u   2 B2u   2 A2u   5 A1g                
  0.551   0.566   0.593   0.602   0.602   0.603   0.603   0.627
  4 B1u   1 A2g   6 A1g   2 E1g   2 E1g   6 E2g   6 E2g   6 E1u                
  0.627   0.668   0.668   0.745   0.840   0.840   0.842   0.865
  6 E1u   2 E2u   2 E2u   2 B2g   7 E2g   7 E2g   5 B1u   7 E1u                
  0.865   0.940   0.940   0.941   0.959   1.083   1.083   1.144
  7 E1u   8 E1u   8 E1u   7 A1g   2 A2g   8 E2g   8 E2g   9 E1u                
  1.144   1.202   1.262   1.396   1.437   1.437   1.488   1.488
  9 E1u   6 B1u   1 B1g   3 A2u   9 E2g   9 E2g   3 E2u   3 E2u                
  1.516   1.516   1.757   1.791   1.858   1.898   1.975   1.975
  3 E1g   3 E1g   8 A1g   3 B2u   9 A1g   7 B1u  10 E1u  10 E1u                
  2.069   2.069   2.153   2.153   2.157   2.157   2.311   2.311
 10 E2g  10 E2g   4 E2u   4 E2u  11 E1u  11 E1u   4 E1g   4 E1g                
  2.324   2.547   2.547   2.660   2.709   2.709   2.724   2.724
  3 B2g  11 E2g  11 E2g   1 A1u  12 E2g  12 E2g  12 E1u  12 E1u                
  2.761   3.019   3.416   4.087   4.118   4.118   4.331   4.331
  8 B1u   3 A2g   9 B1u  10 A1g  13 E1u  13 E1u  13 E2g  13 E2g                
  4.668
 10 B1u                                                                        
 --------------------------------------------------------------
 

                        RESTRICTED (RHF) MOLECULAR ORBITAL COEFFICIENTS
                         1         2         3         4         5         6
 eigenvalues:        -10.187   -10.187   -10.187   -10.186   -10.186   -10.186
   1  H 1   s       -0.00019  -0.00025   0.00000  -0.00021   0.00000   0.00031
   2  H 1   s        0.00091   0.00092   0.00000   0.00065   0.00000   0.00096
   3  C 1   s        0.40929   0.57599   0.00000   0.57033   0.00000  -0.40141
   4  C 1   s        0.01998   0.02859   0.00000   0.02876   0.00000  -0.02087
   5  C 1   px       0.00012  -0.00004   0.00000  -0.00026   0.00000   0.00027
   6  C 1   py       0.00000   0.00000   0.00030   0.00000  -0.00023   0.00000
   7  C 1   pz       0.00000   0.00000   0.00000   0.00000   0.00000   0.00000
   8  C 1   s       -0.00264  -0.00602   0.00000  -0.01149   0.00000   0.02040
   9  C 1   px      -0.00034   0.00043   0.00000   0.00242   0.00000  -0.00850
  10  C 1   py       0.00000   0.00000  -0.00155   0.00000   0.00146   0.00000
  11  C 1   pz       0.00000   0.00000   0.00000   0.00000   0.00000   0.00000
  12  C 1   dxx     -0.00398  -0.00555   0.00000  -0.00524   0.00000   0.00350
  13  C 1   dxy      0.00000   0.00000  -0.00004   0.00000   0.00012   0.00000
  14  C 1   dyy     -0.00407  -0.00558   0.00000  -0.00501   0.00000   0.00329
  15  C 1   dxz      0.00000   0.00000   0.00000   0.00000   0.00000   0.00000
  16  C 1   dyz      0.00000   0.00000   0.00000   0.00000   0.00000   0.00000
  17  C 1   dzz     -0.00411  -0.00561   0.00000  -0.00542   0.00000   0.00360
  18  C 2   s        0.40929  -0.57599   0.00000   0.57033   0.00000   0.40141
  19  C 2   s        0.01998  -0.02859   0.00000   0.02876   0.00000   0.02087
  20  C 2   px      -0.00012  -0.00004   0.00000   0.00026   0.00000   0.00027
  21  C 2   py       0.00000   0.00000   0.00030   0.00000   0.00023   0.00000
  22  C 2   pz       0.00000   0.00000   0.00000   0.00000   0.00000   0.00000
  23  C 2   s       -0.00264   0.00602   0.00000  -0.01149   0.00000  -0.02040
  24  C 2   px       0.00034   0.00043   0.00000  -0.00242   0.00000  -0.00850
  25  C 2   py       0.00000   0.00000  -0.00155   0.00000  -0.00146   0.00000
  26  C 2   pz       0.00000   0.00000   0.00000   0.00000   0.00000   0.00000
  27  C 2   dxx     -0.00398   0.00555   0.00000  -0.00524   0.00000  -0.00350
  28  C 2   dxy      0.00000   0.00000   0.00004   0.00000   0.00012   0.00000
  29  C 2   dyy     -0.00407   0.00558   0.00000  -0.00501   0.00000  -0.00329
  30  C 2   dxz      0.00000   0.00000   0.00000   0.00000   0.00000   0.00000
  31  C 2   dyz      0.00000   0.00000   0.00000   0.00000   0.00000   0.00000
  32  C 2   dzz     -0.00411   0.00561   0.00000  -0.00542   0.00000  -0.00360
  33  C 3   s        0.40303   0.28360  -0.49630  -0.28958   0.49649   0.40762
  34  C 3   s        0.01966   0.01407  -0.02463  -0.01460   0.02503   0.02117
  35  C 3   px       0.00006  -0.00023  -0.00011  -0.00011  -0.00021  -0.00014
  36  C 3   py       0.00011   0.00012   0.00010   0.00021  -0.00013  -0.00024
  37  C 3   pz       0.00000   0.00000   0.00000   0.00000   0.00000   0.00000
  38  C 3   s       -0.00251  -0.00279   0.00508   0.00577  -0.00997  -0.02046
  39  C 3   px      -0.00018   0.00122   0.00051   0.00049   0.00168   0.00426
  40  C 3   py      -0.00032  -0.00056  -0.00066  -0.00168   0.00144   0.00736
  41  C 3   pz       0.00000   0.00000   0.00000   0.00000   0.00000   0.00000
  42  C 3   dxx     -0.00399  -0.00272   0.00482   0.00266  -0.00437  -0.00340
  43  C 3   dxy      0.00005   0.00003   0.00000   0.00011  -0.00007  -0.00010
  44  C 3   dyy     -0.00394  -0.00277   0.00478   0.00256  -0.00456  -0.00350
  45  C 3   dxz      0.00000   0.00000   0.00000   0.00000   0.00000   0.00000
  46  C 3   dyz      0.00000   0.00000   0.00000   0.00000   0.00000   0.00000
  47  C 3   dzz     -0.00405  -0.00277   0.00484   0.00276  -0.00472  -0.00366
  48  C 4   s        0.40303   0.28361   0.49630  -0.28959  -0.49648   0.40762
  49  C 4   s        0.01966   0.01407   0.02463  -0.01460  -0.02503   0.02117
  50  C 4   px       0.00006  -0.00023   0.00011  -0.00011   0.00021  -0.00014
  51  C 4   py      -0.00011  -0.00012   0.00010  -0.00021  -0.00013   0.00024
  52  C 4   pz       0.00000   0.00000   0.00000   0.00000   0.00000   0.00000
  53  C 4   s       -0.00251  -0.00279  -0.00508   0.00577   0.00997  -0.02046
  54  C 4   px      -0.00018   0.00122  -0.00051   0.00049  -0.00168   0.00426
  55  C 4   py       0.00032   0.00056  -0.00066   0.00168   0.00144  -0.00736
  56  C 4   pz       0.00000   0.00000   0.00000   0.00000   0.00000   0.00000
  57  C 4   dxx     -0.00399  -0.00272  -0.00482   0.00266   0.00437  -0.00340
  58  C 4   dxy     -0.00005  -0.00003   0.00000  -0.00011  -0.00007   0.00010
  59  C 4   dyy     -0.00394  -0.00277  -0.00478   0.00256   0.00456  -0.00350
  60  C 4   dxz      0.00000   0.00000   0.00000   0.00000   0.00000   0.00000
  61  C 4   dyz      0.00000   0.00000   0.00000   0.00000   0.00000   0.00000
  62  C 4   dzz     -0.00405  -0.00277  -0.00484   0.00276   0.00472  -0.00366
  63  C 5   s        0.40303  -0.28360   0.49630  -0.28958   0.49649  -0.40762
  64  C 5   s        0.01966  -0.01407   0.02463  -0.01460   0.02503  -0.02117
  65  C 5   px      -0.00006  -0.00023  -0.00011   0.00011   0.00021  -0.00014
  66  C 5   py      -0.00011   0.00012   0.00010  -0.00021   0.00013  -0.00024
  67  C 5   pz       0.00000   0.00000   0.00000   0.00000   0.00000   0.00000
  68  C 5   s       -0.00251   0.00279  -0.00508   0.00577  -0.00997   0.02046
  69  C 5   px       0.00018   0.00122   0.00051  -0.00049  -0.00168   0.00426
  70  C 5   py       0.00032  -0.00056  -0.00066   0.00168  -0.00144   0.00736
  71  C 5   pz       0.00000   0.00000   0.00000   0.00000   0.00000   0.00000
  72  C 5   dxx     -0.00399   0.00272  -0.00482   0.00266  -0.00437   0.00340
  73  C 5   dxy      0.00005  -0.00003   0.00000   0.00011  -0.00007   0.00010
  74  C 5   dyy     -0.00394   0.00277  -0.00478   0.00256  -0.00456   0.00350
  75  C 5   dxz      0.00000   0.00000   0.00000   0.00000   0.00000   0.00000
  76  C 5   dyz      0.00000   0.00000   0.00000   0.00000   0.00000   0.00000
  77  C 5   dzz     -0.00405   0.00277  -0.00484   0.00276  -0.00472   0.00366
  78  C 6   s        0.40303  -0.28361  -0.49630  -0.28959  -0.49648  -0.40762
  79  C 6   s        0.01966  -0.01407  -0.02463  -0.01460  -0.02503  -0.02117
  80  C 6   px      -0.00006  -0.00023   0.00011   0.00011  -0.00021  -0.00014
  81  C 6   py       0.00011  -0.00012   0.00010   0.00021   0.00013   0.00024
  82  C 6   pz       0.00000   0.00000   0.00000   0.00000   0.00000   0.00000
  83  C 6   s       -0.00251   0.00279   0.00508   0.00577   0.00997   0.02046
  84  C 6   px       0.00018   0.00122  -0.00051  -0.00049   0.00168   0.00426
  85  C 6   py      -0.00032   0.00056  -0.00066  -0.00168  -0.00144  -0.00736
  86  C 6   pz       0.00000   0.00000   0.00000   0.00000   0.00000   0.00000
  87  C 6   dxx     -0.00399   0.00272   0.00482   0.00266   0.00437   0.00340
  88  C 6   dxy     -0.00005   0.00003   0.00000  -0.00011  -0.00007  -0.00010
  89  C 6   dyy     -0.00394   0.00277   0.00478   0.00256   0.00456   0.00350
  90  C 6   dxz      0.00000   0.00000   0.00000   0.00000   0.00000   0.00000
  91  C 6   dyz      0.00000   0.00000   0.00000   0.00000   0.00000   0.00000
  92  C 6   dzz     -0.00405   0.00277   0.00484   0.00276   0.00472   0.00366
  93  H 2   s       -0.00019  -0.00012   0.00021   0.00011  -0.00019  -0.00031
  94  H 2   s        0.00090   0.00047  -0.00080  -0.00034   0.00057  -0.00095
  95  H 3   s       -0.00019  -0.00012  -0.00021   0.00011   0.00019  -0.00031
  96  H 3   s        0.00090   0.00047   0.00080  -0.00034  -0.00057  -0.00095
  97  H 4   s       -0.00019   0.00012  -0.00021   0.00011  -0.00019   0.00031
  98  H 4   s        0.00090  -0.00047   0.00080  -0.00034   0.00057   0.00095
  99  H 5   s       -0.00019   0.00012   0.00021   0.00011   0.00019   0.00031
 100  H 5   s        0.00090  -0.00047  -0.00080  -0.00034  -0.00057   0.00095
 101  H 6   s       -0.00019   0.00025   0.00000  -0.00021   0.00000  -0.00031
 102  H 6   s        0.00091  -0.00092   0.00000   0.00065   0.00000  -0.00096
                         7         8         9        10        11        12
 eigenvalues:         -0.847    -0.740    -0.740    -0.598    -0.598    -0.519
   1  H 1   s        0.03547   0.00000   0.07821   0.00000   0.11406  -0.10828
   2  H 1   s        0.00414   0.00000   0.01424   0.00000   0.03796  -0.06700
   3  C 1   s       -0.09414   0.00000  -0.13086   0.00000  -0.10248   0.00864
   4  C 1   s        0.17965   0.00000   0.25822   0.00000   0.21200  -0.01817
   5  C 1   px      -0.06066   0.00000  -0.02178   0.00000   0.07062  -0.19898
   6  C 1   py       0.00000  -0.11512   0.00000  -0.20535   0.00000   0.00000
   7  C 1   pz       0.00000   0.00000   0.00000   0.00000   0.00000   0.00000
   8  C 1   s        0.11379   0.00000   0.19279   0.00000   0.16013  -0.03112
   9  C 1   px      -0.00720   0.00000   0.01000   0.00000   0.05769  -0.06818
  10  C 1   py       0.00000  -0.01812   0.00000  -0.05400   0.00000   0.00000
  11  C 1   pz       0.00000   0.00000   0.00000   0.00000   0.00000   0.00000
  12  C 1   dxx      0.00302   0.00000   0.00119   0.00000   0.00325  -0.00030
  13  C 1   dxy      0.00000   0.01070   0.00000   0.00924   0.00000   0.00000
  14  C 1   dyy      0.00301   0.00000   0.00256   0.00000  -0.00731  -0.00351
  15  C 1   dxz      0.00000   0.00000   0.00000   0.00000   0.00000   0.00000
  16  C 1   dyz      0.00000   0.00000   0.00000   0.00000   0.00000   0.00000
  17  C 1   dzz     -0.01074   0.00000  -0.01273   0.00000  -0.00816   0.00013
  18  C 2   s       -0.09414   0.00000   0.13086   0.00000  -0.10248   0.00864
  19  C 2   s        0.17965   0.00000  -0.25822   0.00000   0.21200  -0.01817
  20  C 2   px       0.06066   0.00000  -0.02178   0.00000  -0.07062   0.19898
  21  C 2   py       0.00000  -0.11512   0.00000   0.20535   0.00000   0.00000
  22  C 2   pz       0.00000   0.00000   0.00000   0.00000   0.00000   0.00000
  23  C 2   s        0.11379   0.00000  -0.19279   0.00000   0.16013  -0.03112
  24  C 2   px       0.00720   0.00000   0.01000   0.00000  -0.05769   0.06818
  25  C 2   py       0.00000  -0.01812   0.00000   0.05400   0.00000   0.00000
  26  C 2   pz       0.00000   0.00000   0.00000   0.00000   0.00000   0.00000
  27  C 2   dxx      0.00302   0.00000  -0.00119   0.00000   0.00325  -0.00030
  28  C 2   dxy      0.00000  -0.01070   0.00000   0.00924   0.00000   0.00000
  29  C 2   dyy      0.00301   0.00000  -0.00256   0.00000  -0.00731  -0.00351
  30  C 2   dxz      0.00000   0.00000   0.00000   0.00000   0.00000   0.00000
  31  C 2   dyz      0.00000   0.00000   0.00000   0.00000   0.00000   0.00000
  32  C 2   dzz     -0.01074   0.00000   0.01273   0.00000  -0.00816   0.00013
  33  C 3   s       -0.09414   0.11332  -0.06543   0.08875   0.05124   0.00865
  34  C 3   s        0.17966  -0.22362   0.12910  -0.18359  -0.10599  -0.01818
  35  C 3   px      -0.03034   0.05929   0.08089  -0.11950   0.13637  -0.09950
  36  C 3   py      -0.05254  -0.01243  -0.05928  -0.00163  -0.11950  -0.17234
  37  C 3   pz       0.00000   0.00000   0.00000   0.00000   0.00000   0.00000
  38  C 3   s        0.11375  -0.16699   0.09645  -0.13870  -0.08005  -0.03115
  39  C 3   px      -0.00359   0.00353   0.01608  -0.04832   0.02607  -0.03409
  40  C 3   py      -0.00621  -0.01201  -0.00355  -0.02976  -0.04835  -0.05905
  41  C 3   pz       0.00000   0.00000   0.00000   0.00000   0.00000   0.00000
  42  C 3   dxx      0.00302  -0.00594  -0.00584   0.00751  -0.00367  -0.00270
  43  C 3   dxy      0.00001  -0.00208  -0.00498  -0.00226  -0.00664   0.00161
  44  C 3   dyy      0.00303   0.00268   0.00772  -0.00399   0.00570  -0.00109
  45  C 3   dxz      0.00000   0.00000   0.00000   0.00000   0.00000   0.00000
  46  C 3   dyz      0.00000   0.00000   0.00000   0.00000   0.00000   0.00000
  47  C 3   dzz     -0.01073   0.01103  -0.00637   0.00707   0.00408   0.00014
  48  C 4   s       -0.09414  -0.11332  -0.06543  -0.08875   0.05124   0.00865
  49  C 4   s        0.17966   0.22362   0.12910   0.18358  -0.10600  -0.01818
  50  C 4   px      -0.03034  -0.05929   0.08089   0.11950   0.13636  -0.09950
  51  C 4   py       0.05254  -0.01243   0.05928  -0.00162   0.11950   0.17234
  52  C 4   pz       0.00000   0.00000   0.00000   0.00000   0.00000   0.00000
  53  C 4   s        0.11375   0.16699   0.09645   0.13870  -0.08005  -0.03115
  54  C 4   px      -0.00359  -0.00353   0.01608   0.04833   0.02607  -0.03409
  55  C 4   py       0.00621  -0.01201   0.00355  -0.02976   0.04835   0.05905
  56  C 4   pz       0.00000   0.00000   0.00000   0.00000   0.00000   0.00000
  57  C 4   dxx      0.00302   0.00594  -0.00584  -0.00751  -0.00367  -0.00270
  58  C 4   dxy     -0.00001  -0.00208   0.00498  -0.00226   0.00664  -0.00161
  59  C 4   dyy      0.00303  -0.00268   0.00772   0.00399   0.00570  -0.00109
  60  C 4   dxz      0.00000   0.00000   0.00000   0.00000   0.00000   0.00000
  61  C 4   dyz      0.00000   0.00000   0.00000   0.00000   0.00000   0.00000
  62  C 4   dzz     -0.01073  -0.01103  -0.00637  -0.00707   0.00408   0.00014
  63  C 5   s       -0.09414  -0.11332   0.06543   0.08875   0.05124   0.00865
  64  C 5   s        0.17966   0.22362  -0.12910  -0.18359  -0.10599  -0.01818
  65  C 5   px       0.03034   0.05929   0.08089   0.11950  -0.13637   0.09950
  66  C 5   py       0.05254  -0.01243  -0.05928   0.00163   0.11950   0.17234
  67  C 5   pz       0.00000   0.00000   0.00000   0.00000   0.00000   0.00000
  68  C 5   s        0.11375   0.16699  -0.09645  -0.13870  -0.08005  -0.03115
  69  C 5   px       0.00359   0.00353   0.01608   0.04832  -0.02607   0.03409
  70  C 5   py       0.00621  -0.01201  -0.00355   0.02976   0.04835   0.05905
  71  C 5   pz       0.00000   0.00000   0.00000   0.00000   0.00000   0.00000
  72  C 5   dxx      0.00302   0.00594   0.00584   0.00751  -0.00367  -0.00270
  73  C 5   dxy      0.00001   0.00208   0.00498  -0.00226  -0.00664   0.00161
  74  C 5   dyy      0.00303  -0.00268  -0.00772  -0.00399   0.00570  -0.00109
  75  C 5   dxz      0.00000   0.00000   0.00000   0.00000   0.00000   0.00000
  76  C 5   dyz      0.00000   0.00000   0.00000   0.00000   0.00000   0.00000
  77  C 5   dzz     -0.01073  -0.01103   0.00637   0.00707   0.00408   0.00014
  78  C 6   s       -0.09414   0.11332   0.06543  -0.08875   0.05124   0.00865
  79  C 6   s        0.17966  -0.22362  -0.12910   0.18358  -0.10600  -0.01818
  80  C 6   px       0.03034  -0.05929   0.08089  -0.11950  -0.13636   0.09950
  81  C 6   py      -0.05254  -0.01243   0.05928   0.00162  -0.11950  -0.17234
  82  C 6   pz       0.00000   0.00000   0.00000   0.00000   0.00000   0.00000
  83  C 6   s        0.11375  -0.16699  -0.09645   0.13870  -0.08005  -0.03115
  84  C 6   px       0.00359  -0.00353   0.01608  -0.04833  -0.02607   0.03409
  85  C 6   py      -0.00621  -0.01201   0.00355   0.02976  -0.04835  -0.05905
  86  C 6   pz       0.00000   0.00000   0.00000   0.00000   0.00000   0.00000
  87  C 6   dxx      0.00302  -0.00594   0.00584  -0.00751  -0.00367  -0.00270
  88  C 6   dxy     -0.00001   0.00208  -0.00498  -0.00226   0.00664  -0.00161
  89  C 6   dyy      0.00303   0.00268  -0.00772   0.00399   0.00570  -0.00109
  90  C 6   dxz      0.00000   0.00000   0.00000   0.00000   0.00000   0.00000
  91  C 6   dyz      0.00000   0.00000   0.00000   0.00000   0.00000   0.00000
  92  C 6   dzz     -0.01073   0.01103   0.00637  -0.00707   0.00408   0.00014
  93  H 2   s        0.03547  -0.06773   0.03911  -0.09878  -0.05703  -0.10829
  94  H 2   s        0.00413  -0.01235   0.00713  -0.03289  -0.01899  -0.06700
  95  H 3   s        0.03547   0.06773   0.03911   0.09878  -0.05703  -0.10829
  96  H 3   s        0.00413   0.01235   0.00713   0.03288  -0.01899  -0.06700
  97  H 4   s        0.03547   0.06773  -0.03911  -0.09878  -0.05703  -0.10829
  98  H 4   s        0.00413   0.01235  -0.00713  -0.03289  -0.01899  -0.06700
  99  H 5   s        0.03547  -0.06773  -0.03911   0.09878  -0.05703  -0.10829
 100  H 5   s        0.00413  -0.01235  -0.00713   0.03288  -0.01899  -0.06700
 101  H 6   s        0.03547   0.00000  -0.07821   0.00000   0.11406  -0.10828
 102  H 6   s        0.00414   0.00000  -0.01424   0.00000   0.03796  -0.06700
                        13        14        15        16        17        18
 eigenvalues:         -0.459    -0.439    -0.417    -0.417    -0.360    -0.340
   1  H 1   s        0.14072   0.00000   0.00000   0.16623   0.00000   0.00000
   2  H 1   s        0.09808   0.00000   0.00000   0.15778   0.00000   0.00000
   3  C 1   s       -0.05917   0.00000   0.00000   0.02371   0.00000   0.00000
   4  C 1   s        0.12134   0.00000   0.00000  -0.05482   0.00000   0.00000
   5  C 1   px       0.13401   0.00000   0.00000   0.30604   0.00000   0.00000
   6  C 1   py       0.00000   0.27522  -0.08625   0.00000   0.00000   0.26833
   7  C 1   pz       0.00000   0.00000   0.00000   0.00000   0.22205   0.00000
   8  C 1   s        0.16148   0.00000   0.00000  -0.09472   0.00000   0.00000
   9  C 1   px       0.03888   0.00000   0.00000   0.09479   0.00000   0.00000
  10  C 1   py       0.00000   0.09241   0.02006   0.00000   0.00000   0.10510
  11  C 1   pz       0.00000   0.00000   0.00000   0.00000   0.12866   0.00000
  12  C 1   dxx      0.01265   0.00000   0.00000   0.01162   0.00000   0.00000
  13  C 1   dxy      0.00000  -0.00384   0.01355   0.00000   0.00000  -0.01159
  14  C 1   dyy     -0.01567   0.00000   0.00000  -0.00310   0.00000   0.00000
  15  C 1   dxz      0.00000   0.00000   0.00000   0.00000  -0.00960   0.00000
  16  C 1   dyz      0.00000   0.00000   0.00000   0.00000   0.00000   0.00000
  17  C 1   dzz     -0.00468   0.00000   0.00000   0.00072   0.00000   0.00000
  18  C 2   s        0.05917   0.00000   0.00000  -0.02371   0.00000   0.00000
  19  C 2   s       -0.12134   0.00000   0.00000   0.05482   0.00000   0.00000
  20  C 2   px       0.13401   0.00000   0.00000   0.30604   0.00000   0.00000
  21  C 2   py       0.00000   0.27522  -0.08625   0.00000   0.00000  -0.26833
  22  C 2   pz       0.00000   0.00000   0.00000   0.00000   0.22205   0.00000
  23  C 2   s       -0.16148   0.00000   0.00000   0.09472   0.00000   0.00000
  24  C 2   px       0.03888   0.00000   0.00000   0.09479   0.00000   0.00000
  25  C 2   py       0.00000   0.09241   0.02006   0.00000   0.00000  -0.10510
  26  C 2   pz       0.00000   0.00000   0.00000   0.00000   0.12866   0.00000
  27  C 2   dxx     -0.01265   0.00000   0.00000  -0.01162   0.00000   0.00000
  28  C 2   dxy      0.00000   0.00384  -0.01355   0.00000   0.00000  -0.01159
  29  C 2   dyy      0.01567   0.00000   0.00000   0.00310   0.00000   0.00000
  30  C 2   dxz      0.00000   0.00000   0.00000   0.00000   0.00960   0.00000
  31  C 2   dyz      0.00000   0.00000   0.00000   0.00000   0.00000   0.00000
  32  C 2   dzz      0.00468   0.00000   0.00000  -0.00072   0.00000   0.00000
  33  C 3   s        0.05917   0.00000   0.02053   0.01186   0.00000  -0.00434
  34  C 3   s       -0.12134   0.00000  -0.04745  -0.02741   0.00000   0.01777
  35  C 3   px      -0.06701   0.23833   0.16990   0.01179   0.00000   0.01848
  36  C 3   py      -0.11607  -0.13762   0.20795   0.16988   0.00000  -0.23631
  37  C 3   pz       0.00000   0.00000   0.00000   0.00000   0.22206   0.00000
  38  C 3   s       -0.16151   0.00000  -0.08205  -0.04739   0.00000  -0.02237
  39  C 3   px      -0.01942   0.08001   0.03239   0.03873   0.00000   0.02879
  40  C 3   py      -0.03368  -0.04620   0.07614   0.03238   0.00000  -0.05528
  41  C 3   pz       0.00000   0.00000   0.00000   0.00000   0.12859   0.00000
  42  C 3   dxx      0.00859  -0.00288  -0.00457   0.00909   0.00000   0.00010
  43  C 3   dxy     -0.01416  -0.00192   0.00298   0.00955   0.00000  -0.01942
  44  C 3   dyy     -0.00557   0.00288   0.01195  -0.00483   0.00000  -0.00774
  45  C 3   dxz      0.00000   0.00000   0.00000   0.00000  -0.00480   0.00000
  46  C 3   dyz      0.00000   0.00000   0.00000   0.00000  -0.00831   0.00000
  47  C 3   dzz      0.00468   0.00000   0.00063   0.00036   0.00000   0.00096
  48  C 4   s        0.05917   0.00000  -0.02053   0.01186   0.00000   0.00434
  49  C 4   s       -0.12134   0.00000   0.04745  -0.02741   0.00000  -0.01777
  50  C 4   px      -0.06701  -0.23833  -0.16990   0.01180   0.00000  -0.01849
  51  C 4   py       0.11607  -0.13762   0.20795  -0.16988   0.00000  -0.23631
  52  C 4   pz       0.00000   0.00000   0.00000   0.00000   0.22206   0.00000
  53  C 4   s       -0.16151   0.00000   0.08205  -0.04739   0.00000   0.02237
  54  C 4   px      -0.01942  -0.08001  -0.03239   0.03873   0.00000  -0.02879
  55  C 4   py       0.03368  -0.04620   0.07614  -0.03238   0.00000  -0.05528
  56  C 4   pz       0.00000   0.00000   0.00000   0.00000   0.12859   0.00000
  57  C 4   dxx      0.00859   0.00288   0.00457   0.00909   0.00000  -0.00009
  58  C 4   dxy      0.01416  -0.00192   0.00298  -0.00955   0.00000  -0.01942
  59  C 4   dyy     -0.00557  -0.00288  -0.01195  -0.00483   0.00000   0.00774
  60  C 4   dxz      0.00000   0.00000   0.00000   0.00000  -0.00480   0.00000
  61  C 4   dyz      0.00000   0.00000   0.00000   0.00000   0.00831   0.00000
  62  C 4   dzz      0.00468   0.00000  -0.00063   0.00036   0.00000  -0.00096
  63  C 5   s       -0.05917   0.00000  -0.02053  -0.01186   0.00000  -0.00434
  64  C 5   s        0.12134   0.00000   0.04745   0.02741   0.00000   0.01777
  65  C 5   px      -0.06701   0.23833   0.16990   0.01179   0.00000  -0.01848
  66  C 5   py      -0.11607  -0.13762   0.20795   0.16988   0.00000   0.23631
  67  C 5   pz       0.00000   0.00000   0.00000   0.00000   0.22206   0.00000
  68  C 5   s        0.16151   0.00000   0.08205   0.04739   0.00000  -0.02237
  69  C 5   px      -0.01942   0.08001   0.03239   0.03873   0.00000  -0.02879
  70  C 5   py      -0.03368  -0.04620   0.07614   0.03238   0.00000   0.05528
  71  C 5   pz       0.00000   0.00000   0.00000   0.00000   0.12859   0.00000
  72  C 5   dxx     -0.00859   0.00288   0.00457  -0.00909   0.00000   0.00010
  73  C 5   dxy      0.01416   0.00192  -0.00298  -0.00955   0.00000  -0.01942
  74  C 5   dyy      0.00557  -0.00288  -0.01195   0.00483   0.00000  -0.00774
  75  C 5   dxz      0.00000   0.00000   0.00000   0.00000   0.00480   0.00000
  76  C 5   dyz      0.00000   0.00000   0.00000   0.00000   0.00831   0.00000
  77  C 5   dzz     -0.00468   0.00000  -0.00063  -0.00036   0.00000   0.00096
  78  C 6   s       -0.05917   0.00000   0.02053  -0.01186   0.00000   0.00434
  79  C 6   s        0.12134   0.00000  -0.04745   0.02741   0.00000  -0.01777
  80  C 6   px      -0.06701  -0.23833  -0.16990   0.01180   0.00000   0.01849
  81  C 6   py       0.11607  -0.13762   0.20795  -0.16988   0.00000   0.23631
  82  C 6   pz       0.00000   0.00000   0.00000   0.00000   0.22206   0.00000
  83  C 6   s        0.16151   0.00000  -0.08205   0.04739   0.00000   0.02237
  84  C 6   px      -0.01942  -0.08001  -0.03239   0.03873   0.00000   0.02879
  85  C 6   py       0.03368  -0.04620   0.07614  -0.03238   0.00000   0.05528
  86  C 6   pz       0.00000   0.00000   0.00000   0.00000   0.12859   0.00000
  87  C 6   dxx     -0.00859  -0.00288  -0.00457  -0.00909   0.00000  -0.00009
  88  C 6   dxy     -0.01416   0.00192  -0.00298   0.00955   0.00000  -0.01942
  89  C 6   dyy      0.00557   0.00288   0.01195   0.00483   0.00000   0.00774
  90  C 6   dxz      0.00000   0.00000   0.00000   0.00000   0.00480   0.00000
  91  C 6   dyz      0.00000   0.00000   0.00000   0.00000  -0.00831   0.00000
  92  C 6   dzz     -0.00468   0.00000   0.00063  -0.00036   0.00000  -0.00096
  93  H 2   s       -0.14073  -0.00001   0.14396   0.08311   0.00000  -0.14802
  94  H 2   s       -0.09808  -0.00001   0.13661   0.07888   0.00000  -0.16934
  95  H 3   s       -0.14073   0.00001  -0.14396   0.08311   0.00000   0.14802
  96  H 3   s       -0.09808   0.00001  -0.13661   0.07888   0.00000   0.16934
  97  H 4   s        0.14073   0.00001  -0.14396  -0.08311   0.00000  -0.14802
  98  H 4   s        0.09808   0.00001  -0.13661  -0.07888   0.00000  -0.16934
  99  H 5   s        0.14073  -0.00001   0.14396  -0.08311   0.00000   0.14802
 100  H 5   s        0.09808  -0.00001   0.13661  -0.07888   0.00000   0.16934
 101  H 6   s       -0.14072   0.00000   0.00000  -0.16623   0.00000   0.00000
 102  H 6   s       -0.09808   0.00000   0.00000  -0.15778   0.00000   0.00000
                        19        20        21        22        23        24
 eigenvalues:         -0.340    -0.247    -0.246     0.004     0.004     0.091
   1  H 1   s        0.17092   0.00000   0.00000   0.00000   0.00000   0.06010
   2  H 1   s        0.19557   0.00000   0.00000   0.00000   0.00000   0.73141
   3  C 1   s        0.00501   0.00000   0.00000   0.00000   0.00000   0.03923
   4  C 1   s       -0.02052   0.00000   0.00000   0.00000   0.00000  -0.06783
   5  C 1   px       0.22565   0.00000   0.00000   0.00000   0.00000  -0.12641
   6  C 1   py       0.00000   0.00000   0.00000   0.00000   0.00000   0.00000
   7  C 1   pz       0.00000   0.33990   0.00000   0.00000   0.36467   0.00000
   8  C 1   s        0.02581   0.00000   0.00000   0.00000   0.00000  -0.51215
   9  C 1   px       0.03863   0.00000   0.00000   0.00000   0.00000  -0.28131
  10  C 1   py       0.00000   0.00000   0.00000   0.00000   0.00000   0.00000
  11  C 1   pz       0.00000   0.24381   0.00000   0.00000   0.48580   0.00000
  12  C 1   dxx      0.02350   0.00000   0.00000   0.00000   0.00000   0.01979
  13  C 1   dxy      0.00000   0.00000   0.00000   0.00000   0.00000   0.00000
  14  C 1   dyy     -0.01467   0.00000   0.00000   0.00000   0.00000  -0.01220
  15  C 1   dxz      0.00000  -0.00495   0.00000   0.00000   0.01092   0.00000
  16  C 1   dyz      0.00000   0.00000  -0.01885  -0.03007   0.00000   0.00000
  17  C 1   dzz     -0.00111   0.00000   0.00000   0.00000   0.00000   0.00011
  18  C 2   s        0.00501   0.00000   0.00000   0.00000   0.00000   0.03923
  19  C 2   s       -0.02052   0.00000   0.00000   0.00000   0.00000  -0.06783
  20  C 2   px      -0.22565   0.00000   0.00000   0.00000   0.00000   0.12641
  21  C 2   py       0.00000   0.00000   0.00000   0.00000   0.00000   0.00000
  22  C 2   pz       0.00000  -0.33990   0.00000   0.00000   0.36467   0.00000
  23  C 2   s        0.02581   0.00000   0.00000   0.00000   0.00000  -0.51215
  24  C 2   px      -0.03863   0.00000   0.00000   0.00000   0.00000   0.28131
  25  C 2   py       0.00000   0.00000   0.00000   0.00000   0.00000   0.00000
  26  C 2   pz       0.00000  -0.24381   0.00000   0.00000   0.48580   0.00000
  27  C 2   dxx      0.02350   0.00000   0.00000   0.00000   0.00000   0.01979
  28  C 2   dxy      0.00000   0.00000   0.00000   0.00000   0.00000   0.00000
  29  C 2   dyy     -0.01467   0.00000   0.00000   0.00000   0.00000  -0.01220
  30  C 2   dxz      0.00000  -0.00495   0.00000   0.00000  -0.01092   0.00000
  31  C 2   dyz      0.00000   0.00000  -0.01885   0.03007   0.00000   0.00000
  32  C 2   dzz     -0.00111   0.00000   0.00000   0.00000   0.00000   0.00011
  33  C 3   s       -0.00251   0.00000   0.00000   0.00000   0.00000   0.03924
  34  C 3   s        0.01025   0.00000   0.00000   0.00000   0.00000  -0.06782
  35  C 3   px      -0.25765   0.00000   0.00000   0.00000   0.00000  -0.06321
  36  C 3   py       0.01850   0.00000   0.00000   0.00000   0.00000  -0.10950
  37  C 3   pz       0.00000   0.16994  -0.29440  -0.31580  -0.18238   0.00000
  38  C 3   s       -0.01292   0.00000   0.00000   0.00000   0.00000  -0.51237
  39  C 3   px      -0.08850   0.00000   0.00000   0.00000   0.00000  -0.14066
  40  C 3   py       0.02877   0.00000   0.00000   0.00000   0.00000  -0.24357
  41  C 3   pz       0.00000   0.12195  -0.21113  -0.42077  -0.24288   0.00000
  42  C 3   dxx      0.01009   0.00000   0.00000   0.00000   0.00000  -0.00420
  43  C 3   dxy     -0.00452   0.00000   0.00000   0.00000   0.00000   0.01601
  44  C 3   dyy     -0.01451   0.00000   0.00000   0.00000   0.00000   0.01181
  45  C 3   dxz      0.00000   0.01290   0.01031  -0.01775   0.01983   0.00000
  46  C 3   dyz      0.00000  -0.01031  -0.00100  -0.00067  -0.01775   0.00000
  47  C 3   dzz      0.00056   0.00000   0.00000   0.00000   0.00000   0.00011
  48  C 4   s       -0.00251   0.00000   0.00000   0.00000   0.00000   0.03924
  49  C 4   s        0.01025   0.00000   0.00000   0.00000   0.00000  -0.06782
  50  C 4   px      -0.25765   0.00000   0.00000   0.00000   0.00000  -0.06321
  51  C 4   py      -0.01850   0.00000   0.00000   0.00000   0.00000   0.10950
  52  C 4   pz       0.00000   0.16994   0.29440   0.31580  -0.18238   0.00000
  53  C 4   s       -0.01292   0.00000   0.00000   0.00000   0.00000  -0.51237
  54  C 4   px      -0.08850   0.00000   0.00000   0.00000   0.00000  -0.14066
  55  C 4   py      -0.02877   0.00000   0.00000   0.00000   0.00000   0.24357
  56  C 4   pz       0.00000   0.12195   0.21113   0.42077  -0.24288   0.00000
  57  C 4   dxx      0.01009   0.00000   0.00000   0.00000   0.00000  -0.00420
  58  C 4   dxy      0.00452   0.00000   0.00000   0.00000   0.00000  -0.01601
  59  C 4   dyy     -0.01451   0.00000   0.00000   0.00000   0.00000   0.01181
  60  C 4   dxz      0.00000   0.01290  -0.01031   0.01775   0.01983   0.00000
  61  C 4   dyz      0.00000   0.01031  -0.00100  -0.00067   0.01775   0.00000
  62  C 4   dzz      0.00056   0.00000   0.00000   0.00000   0.00000   0.00011
  63  C 5   s       -0.00251   0.00000   0.00000   0.00000   0.00000   0.03924
  64  C 5   s        0.01025   0.00000   0.00000   0.00000   0.00000  -0.06782
  65  C 5   px       0.25765   0.00000   0.00000   0.00000   0.00000   0.06321
  66  C 5   py      -0.01850   0.00000   0.00000   0.00000   0.00000   0.10950
  67  C 5   pz       0.00000  -0.16994   0.29440  -0.31580  -0.18238   0.00000
  68  C 5   s       -0.01292   0.00000   0.00000   0.00000   0.00000  -0.51237
  69  C 5   px       0.08850   0.00000   0.00000   0.00000   0.00000   0.14066
  70  C 5   py      -0.02877   0.00000   0.00000   0.00000   0.00000   0.24357
  71  C 5   pz       0.00000  -0.12195   0.21113  -0.42077  -0.24288   0.00000
  72  C 5   dxx      0.01009   0.00000   0.00000   0.00000   0.00000  -0.00420
  73  C 5   dxy     -0.00452   0.00000   0.00000   0.00000   0.00000   0.01601
  74  C 5   dyy     -0.01451   0.00000   0.00000   0.00000   0.00000   0.01181
  75  C 5   dxz      0.00000   0.01290   0.01031   0.01775  -0.01983   0.00000
  76  C 5   dyz      0.00000  -0.01031  -0.00100   0.00067   0.01775   0.00000
  77  C 5   dzz      0.00056   0.00000   0.00000   0.00000   0.00000   0.00011
  78  C 6   s       -0.00251   0.00000   0.00000   0.00000   0.00000   0.03924
  79  C 6   s        0.01025   0.00000   0.00000   0.00000   0.00000  -0.06782
  80  C 6   px       0.25765   0.00000   0.00000   0.00000   0.00000   0.06321
  81  C 6   py       0.01850   0.00000   0.00000   0.00000   0.00000  -0.10950
  82  C 6   pz       0.00000  -0.16994  -0.29440   0.31580  -0.18238   0.00000
  83  C 6   s       -0.01292   0.00000   0.00000   0.00000   0.00000  -0.51237
  84  C 6   px       0.08850   0.00000   0.00000   0.00000   0.00000   0.14066
  85  C 6   py       0.02877   0.00000   0.00000   0.00000   0.00000  -0.24357
  86  C 6   pz       0.00000  -0.12195  -0.21113   0.42077  -0.24288   0.00000
  87  C 6   dxx      0.01009   0.00000   0.00000   0.00000   0.00000  -0.00420
  88  C 6   dxy      0.00452   0.00000   0.00000   0.00000   0.00000  -0.01601
  89  C 6   dyy     -0.01451   0.00000   0.00000   0.00000   0.00000   0.01181
  90  C 6   dxz      0.00000   0.01290  -0.01031  -0.01775  -0.01983   0.00000
  91  C 6   dyz      0.00000   0.01031  -0.00100   0.00067  -0.01775   0.00000
  92  C 6   dzz      0.00056   0.00000   0.00000   0.00000   0.00000   0.00011
  93  H 2   s       -0.08545   0.00000   0.00000   0.00000   0.00000   0.06011
  94  H 2   s       -0.09776   0.00000   0.00000   0.00000   0.00000   0.73146
  95  H 3   s       -0.08546   0.00000   0.00000   0.00000   0.00000   0.06011
  96  H 3   s       -0.09776   0.00000   0.00000   0.00000   0.00000   0.73146
  97  H 4   s       -0.08545   0.00000   0.00000   0.00000   0.00000   0.06011
  98  H 4   s       -0.09776   0.00000   0.00000   0.00000   0.00000   0.73146
  99  H 5   s       -0.08546   0.00000   0.00000   0.00000   0.00000   0.06011
 100  H 5   s       -0.09776   0.00000   0.00000   0.00000   0.00000   0.73146
 101  H 6   s        0.17092   0.00000   0.00000   0.00000   0.00000   0.06010
 102  H 6   s        0.19557   0.00000   0.00000   0.00000   0.00000   0.73141
                        25        26
 eigenvalues:          0.145     0.145
   1  H 1   s        0.00000   0.04523
   2  H 1   s        0.00005   1.22735
   3  C 1   s        0.00000   0.03864
   4  C 1   s        0.00000  -0.03816
   5  C 1   px      -0.00001  -0.24949
   6  C 1   py      -0.02640   0.00000
   7  C 1   pz       0.00000   0.00000
   8  C 1   s       -0.00004  -0.96721
   9  C 1   px      -0.00002  -0.60354
  10  C 1   py       0.21631  -0.00001
  11  C 1   pz       0.00000   0.00000
  12  C 1   dxx      0.00000   0.00931
  13  C 1   dxy     -0.01235   0.00000
  14  C 1   dyy      0.00000  -0.00927
  15  C 1   dxz      0.00000   0.00000
  16  C 1   dyz      0.00000   0.00000
  17  C 1   dzz      0.00000   0.00360
  18  C 2   s        0.00000  -0.03864
  19  C 2   s        0.00000   0.03816
  20  C 2   px      -0.00001  -0.24949
  21  C 2   py      -0.02640   0.00000
  22  C 2   pz       0.00000   0.00000
  23  C 2   s        0.00004   0.96721
  24  C 2   px      -0.00002  -0.60354
  25  C 2   py       0.21631  -0.00001
  26  C 2   pz       0.00000   0.00000
  27  C 2   dxx      0.00000  -0.00931
  28  C 2   dxy      0.01235   0.00000
  29  C 2   dyy      0.00000   0.00927
  30  C 2   dxz      0.00000   0.00000
  31  C 2   dyz      0.00000   0.00000
  32  C 2   dzz      0.00000  -0.00360
  33  C 3   s        0.03347   0.01932
  34  C 3   s       -0.03307  -0.01910
  35  C 3   px      -0.09659  -0.08216
  36  C 3   py      -0.19372  -0.09660
  37  C 3   pz       0.00000   0.00000
  38  C 3   s       -0.83756  -0.48335
  39  C 3   px      -0.35509   0.01120
  40  C 3   py      -0.39871  -0.35517
  41  C 3   pz       0.00000   0.00000
  42  C 3   dxx      0.00062  -0.01033
  43  C 3   dxy      0.01114  -0.00070
  44  C 3   dyy     -0.00059   0.01035
  45  C 3   dxz      0.00000   0.00000
  46  C 3   dyz      0.00000   0.00000
  47  C 3   dzz      0.00311   0.00180
  48  C 4   s       -0.03347   0.01932
  49  C 4   s        0.03307  -0.01910
  50  C 4   px       0.09659  -0.08217
  51  C 4   py      -0.19371   0.09662
  52  C 4   pz       0.00000   0.00000
  53  C 4   s        0.83752  -0.48342
  54  C 4   px       0.35509   0.01117
  55  C 4   py      -0.39868   0.35520
  56  C 4   pz       0.00000   0.00000
  57  C 4   dxx     -0.00062  -0.01033
  58  C 4   dxy      0.01114   0.00070
  59  C 4   dyy      0.00059   0.01035
  60  C 4   dxz      0.00000   0.00000
  61  C 4   dyz      0.00000   0.00000
  62  C 4   dzz     -0.00311   0.00180
  63  C 5   s       -0.03347  -0.01932
  64  C 5   s        0.03307   0.01910
  65  C 5   px      -0.09659  -0.08216
  66  C 5   py      -0.19372  -0.09660
  67  C 5   pz       0.00000   0.00000
  68  C 5   s        0.83756   0.48335
  69  C 5   px      -0.35509   0.01120
  70  C 5   py      -0.39871  -0.35517
  71  C 5   pz       0.00000   0.00000
  72  C 5   dxx     -0.00062   0.01033
  73  C 5   dxy     -0.01114   0.00070
  74  C 5   dyy      0.00059  -0.01035
  75  C 5   dxz      0.00000   0.00000
  76  C 5   dyz      0.00000   0.00000
  77  C 5   dzz     -0.00311  -0.00180
  78  C 6   s        0.03347  -0.01932
  79  C 6   s       -0.03307   0.01910
  80  C 6   px       0.09659  -0.08217
  81  C 6   py      -0.19371   0.09662
  82  C 6   pz       0.00000   0.00000
  83  C 6   s       -0.83752   0.48342
  84  C 6   px       0.35509   0.01117
  85  C 6   py      -0.39868   0.35520
  86  C 6   pz       0.00000   0.00000
  87  C 6   dxx      0.00062   0.01033
  88  C 6   dxy     -0.01114  -0.00070
  89  C 6   dyy     -0.00059  -0.01035
  90  C 6   dxz      0.00000   0.00000
  91  C 6   dyz      0.00000   0.00000
  92  C 6   dzz      0.00311  -0.00180
  93  H 2   s        0.03918   0.02262
  94  H 2   s        1.06301   0.61376
  95  H 3   s       -0.03918   0.02262
  96  H 3   s       -1.06296   0.61384
  97  H 4   s       -0.03918  -0.02262
  98  H 4   s       -1.06301  -0.61376
  99  H 5   s        0.03918  -0.02262
 100  H 5   s        1.06296  -0.61384
 101  H 6   s        0.00000  -0.04523
 102  H 6   s       -0.00005  -1.22735
 
          Ground-State Mulliken Net Atomic Charges

     Atom                 Charge (a.u.)
  ----------------------------------------
      1 H                     0.128330
      2 C                    -0.128355
      3 C                    -0.128355
      4 C                    -0.128334
      5 C                    -0.128334
      6 C                    -0.128334
      7 C                    -0.128334
      8 H                     0.128346
      9 H                     0.128346
     10 H                     0.128346
     11 H                     0.128346
     12 H                     0.128330
  ----------------------------------------
  Sum of atomic charges =     0.000000

 -----------------------------------------------------------------
                    Cartesian Multipole Moments
 -----------------------------------------------------------------
    Charge (ESU x 10^10)
                 0.0000
    Dipole Moment (Debye)
         X       0.0000      Y       0.0000      Z       0.0000
       Tot       0.0000
    Quadrupole Moments (Debye-Ang)
        XX     -31.4130     XY       0.0000     YY     -31.4111
        XZ       0.0000     YZ       0.0000     ZZ     -38.5761
    Octapole Moments (Debye-Ang^2)
       XXX       0.0000    XXY       0.0000    XYY       0.0000
       YYY       0.0000    XXZ       0.0000    XYZ       0.0000
       YYZ       0.0000    XZZ       0.0000    YZZ       0.0000
       ZZZ       0.0000
    Hexadecapole Moments (Debye-Ang^3)
      XXXX    -269.6943   XXXY       0.0000   XXYY     -89.8946
      XYYY       0.0000   YYYY    -269.6814   XXXZ       0.0000
      XXYZ       0.0000   XYYZ       0.0000   YYYZ       0.0000
      XXZZ     -60.2352   XYZZ       0.0000   YYZZ     -60.2327
      XZZZ       0.0000   YZZZ       0.0000   ZZZZ     -40.0052
 -----------------------------------------------------------------
 Calculating analytic gradient of the SCF energy
 Gradient of SCF Energy
            1           2           3           4           5           6
    1  -0.0002659  -0.0014772   0.0014772  -0.0006771  -0.0006771   0.0006771
    2  -0.0000000  -0.0000000  -0.0000000  -0.0013402   0.0013402   0.0013402
    3   0.0000000   0.0000000   0.0000000  -0.0000000   0.0000000  -0.0000000
            7           8           9          10          11          12
    1   0.0006771  -0.0001326  -0.0001326   0.0001326   0.0001326   0.0002659
    2  -0.0013402  -0.0002044   0.0002044   0.0002044  -0.0002044  -0.0000000
    3   0.0000000  -0.0000000  -0.0000000  -0.0000000   0.0000000  -0.0000000
 Max gradient component =       1.477E-03
 RMS gradient           =       6.183E-04
 Gradient time:  CPU 7.05 s  wall 6.34 s


** GEOMETRY OPTIMIZATION IN DELOCALIZED INTERNAL COORDINATES **
   Searching for a Minimum

   Optimization Cycle:   1

                       Coordinates (Angstroms)
     ATOM              X           Y           Z
    1  H           2.481556    0.000000    0.000000
    2  C           1.394826    0.000000    0.000000
    3  C          -1.394826    0.000000    0.000000
    4  C           0.697413    1.207955    0.000000
    5  C           0.697413   -1.207955    0.000000
    6  C          -0.697413   -1.207955    0.000000
    7  C          -0.697413    1.207955    0.000000
    8  H           1.240778    2.149090    0.000000
    9  H           1.240778   -2.149090    0.000000
   10  H          -1.240778   -2.149090    0.000000
   11  H          -1.240778    2.149090    0.000000
   12  H          -2.481556    0.000000    0.000000
   Point Group: d6h   Number of degrees of freedom:   2


   Energy is   -232.248679380


 Attempting to Generate Delocalized Internal Coordinates

  2 Hessian modes will be used to form the next step
  Hessian Eigenvalues:
     0.351933    0.464889

 Minimum Search - Taking Simple RFO Step
 Searching for Lamda that Minimizes Along All modes
 Value Taken    Lamda =  -0.00004027
 Step Taken.  Stepsize is  0.009346

                             Maximum     Tolerance    Cnvgd?
         Gradient           0.003954      0.000300      NO
         Displacement       0.008728      0.001200      NO
         Energy change     *********      0.000001      NO


 New Cartesian Coordinates Obtained by Inverse Iteration

 Displacement from previous Coordinates is:  0.014272
 Writing REM_CC_EA           12
 ----------------------------------------------------
       Standard Nuclear Orientation (Angstroms)
    I     Atom         X            Y            Z
 ----------------------------------------------------
    1      H       2.483917     0.000000     0.000000
    2      C       1.396809     0.000000     0.000000
    3      C      -1.396809     0.000000     0.000000
    4      C       0.698405     1.209672     0.000000
    5      C       0.698405    -1.209672     0.000000
    6      C      -0.698405    -1.209672     0.000000
    7      C      -0.698405     1.209672     0.000000
    8      H       1.241958     2.151135     0.000000
    9      H       1.241958    -2.151135     0.000000
   10      H      -1.241958    -2.151135     0.000000
   11      H      -1.241958     2.151135     0.000000
   12      H      -2.483917     0.000000     0.000000
 ----------------------------------------------------
 Molecular Point Group                 D6h   NOp = 24
 Largest Abelian Subgroup              D2h   NOp =  8
 Nuclear Repulsion Energy =   203.1601403521 hartrees
 There are       21 alpha and       21 beta electrons

 Q-Chem warning in module snoman.F, line  300, PE  0:

 turning symmetry off for DFT job

 Applying Cartesian multipole field
    Component          Value
    ---------          -----
     (2,0,0)        1.00000E-11
     (0,2,0)        2.00000E-11
     (0,0,2)       -3.00000E-10
 Nucleus-field energy     =     0.0000000057 hartrees
 Requested basis set is 6-31G(d)
Basis set in general basis input format:
-----------------------------------------------------------------------
$basis
H    0
S    3    1.000000
   1.87311370E+01    3.34946000E-02 
   2.82539370E+00    2.34726950E-01 
   6.40121700E-01    8.13757330E-01 
S    1    1.000000
   1.61277800E-01    1.00000000E+00 
****
C    0
S    6    1.000000
   3.04752490E+03    1.83470000E-03 
   4.57369510E+02    1.40373000E-02 
   1.03948690E+02    6.88426000E-02 
   2.92101550E+01    2.32184400E-01 
   9.28666300E+00    4.67941300E-01 
   3.16392700E+00    3.62312000E-01 
SP   3    1.000000
   7.86827240E+00   -1.19332400E-01   6.89991000E-02 
   1.88128850E+00   -1.60854200E-01   3.16424000E-01 
   5.44249300E-01    1.14345640E+00   7.44308300E-01 
SP   1    1.000000
   1.68714400E-01    1.00000000E+00   1.00000000E+00 
D    1    1.000000
   8.00000000E-01    1.00000000E+00 
****
C    0
S    6    1.000000
   3.04752490E+03    1.83470000E-03 
   4.57369510E+02    1.40373000E-02 
   1.03948690E+02    6.88426000E-02 
   2.92101550E+01    2.32184400E-01 
   9.28666300E+00    4.67941300E-01 
   3.16392700E+00    3.62312000E-01 
SP   3    1.000000
   7.86827240E+00   -1.19332400E-01   6.89991000E-02 
   1.88128850E+00   -1.60854200E-01   3.16424000E-01 
   5.44249300E-01    1.14345640E+00   7.44308300E-01 
SP   1    1.000000
   1.68714400E-01    1.00000000E+00   1.00000000E+00 
D    1    1.000000
   8.00000000E-01    1.00000000E+00 
****
C    0
S    6    1.000000
   3.04752490E+03    1.83470000E-03 
   4.57369510E+02    1.40373000E-02 
   1.03948690E+02    6.88426000E-02 
   2.92101550E+01    2.32184400E-01 
   9.28666300E+00    4.67941300E-01 
   3.16392700E+00    3.62312000E-01 
SP   3    1.000000
   7.86827240E+00   -1.19332400E-01   6.89991000E-02 
   1.88128850E+00   -1.60854200E-01   3.16424000E-01 
   5.44249300E-01    1.14345640E+00   7.44308300E-01 
SP   1    1.000000
   1.68714400E-01    1.00000000E+00   1.00000000E+00 
D    1    1.000000
   8.00000000E-01    1.00000000E+00 
****
C    0
S    6    1.000000
   3.04752490E+03    1.83470000E-03 
   4.57369510E+02    1.40373000E-02 
   1.03948690E+02    6.88426000E-02 
   2.92101550E+01    2.32184400E-01 
   9.28666300E+00    4.67941300E-01 
   3.16392700E+00    3.62312000E-01 
SP   3    1.000000
   7.86827240E+00   -1.19332400E-01   6.89991000E-02 
   1.88128850E+00   -1.60854200E-01   3.16424000E-01 
   5.44249300E-01    1.14345640E+00   7.44308300E-01 
SP   1    1.000000
   1.68714400E-01    1.00000000E+00   1.00000000E+00 
D    1    1.000000
   8.00000000E-01    1.00000000E+00 
****
C    0
S    6    1.000000
   3.04752490E+03    1.83470000E-03 
   4.57369510E+02    1.40373000E-02 
   1.03948690E+02    6.88426000E-02 
   2.92101550E+01    2.32184400E-01 
   9.28666300E+00    4.67941300E-01 
   3.16392700E+00    3.62312000E-01 
SP   3    1.000000
   7.86827240E+00   -1.19332400E-01   6.89991000E-02 
   1.88128850E+00   -1.60854200E-01   3.16424000E-01 
   5.44249300E-01    1.14345640E+00   7.44308300E-01 
SP   1    1.000000
   1.68714400E-01    1.00000000E+00   1.00000000E+00 
D    1    1.000000
   8.00000000E-01    1.00000000E+00 
****
C    0
S    6    1.000000
   3.04752490E+03    1.83470000E-03 
   4.57369510E+02    1.40373000E-02 
   1.03948690E+02    6.88426000E-02 
   2.92101550E+01    2.32184400E-01 
   9.28666300E+00    4.67941300E-01 
   3.16392700E+00    3.62312000E-01 
SP   3    1.000000
   7.86827240E+00   -1.19332400E-01   6.89991000E-02 
   1.88128850E+00   -1.60854200E-01   3.16424000E-01 
   5.44249300E-01    1.14345640E+00   7.44308300E-01 
SP   1    1.000000
   1.68714400E-01    1.00000000E+00   1.00000000E+00 
D    1    1.000000
   8.00000000E-01    1.00000000E+00 
****
H    0
S    3    1.000000
   1.87311370E+01    3.34946000E-02 
   2.82539370E+00    2.34726950E-01 
   6.40121700E-01    8.13757330E-01 
S    1    1.000000
   1.61277800E-01    1.00000000E+00 
****
H    0
S    3    1.000000
   1.87311370E+01    3.34946000E-02 
   2.82539370E+00    2.34726950E-01 
   6.40121700E-01    8.13757330E-01 
S    1    1.000000
   1.61277800E-01    1.00000000E+00 
****
H    0
S    3    1.000000
   1.87311370E+01    3.34946000E-02 
   2.82539370E+00    2.34726950E-01 
   6.40121700E-01    8.13757330E-01 
S    1    1.000000
   1.61277800E-01    1.00000000E+00 
****
H    0
S    3    1.000000
   1.87311370E+01    3.34946000E-02 
   2.82539370E+00    2.34726950E-01 
   6.40121700E-01    8.13757330E-01 
S    1    1.000000
   1.61277800E-01    1.00000000E+00 
****
H    0
S    3    1.000000
   1.87311370E+01    3.34946000E-02 
   2.82539370E+00    2.34726950E-01 
   6.40121700E-01    8.13757330E-01 
S    1    1.000000
   1.61277800E-01    1.00000000E+00 
****
$end
-----------------------------------------------------------------------
 There are 36 shells and 102 basis functions
 A cutoff of  1.0D-11 yielded    648 shell pairs
 There are   5397 function pairs
Evaluating contribution to one-electron hamiltonian from nuclear
 Smallest overlap matrix eigenvalue = 5.22E-04
 Multipole matrices computed through 2nd order
 Guess MOs from SCF MO coefficient file
Reading MOs from coefficient file
Reading MOs from coefficient file
 A restricted hybrid HF-DFT SCF calculation will be
 performed using Pulay DIIS extrapolation
 Exchange:     0.2000 Hartree-Fock + 0.0800 Slater + 0.7200 Becke
 Correlation:  0.8100 LYP + 0.1900 VWN1RPA
 Using SG-1 standard quadrature grid
 SCF converges when DIIS error is below 1.0E-08
 ---------------------------------------
  Cycle       Energy         DIIS Error
 ---------------------------------------
    1    -232.2419341836      1.80E-04
    2    -232.2486899526      6.89E-05
    3    -232.2486930243      5.48E-05
    4    -232.2486970520      1.19E-06
    5    -232.2486970535      2.20E-07
    6    -232.2486970533      2.31E-08
    7    -232.2486970546      2.47E-09 Convergence criterion met
 ---------------------------------------
 SCF time:  CPU 23.96 s  wall 15.63 s
 Analysis of SCF Wavefunction
 
 --------------------------------------------------------------
             Orbital Energies (a.u.) and Symmetries
 --------------------------------------------------------------
 Warning : Irrep of orbital(  41) could not be determined
 Warning : Irrep of orbital(  42) could not be determined
 Warning : Irrep of orbital(  43) could not be determined
 Warning : Irrep of orbital(  44) could not be determined
 
 Alpha MOs, Restricted
 -- Occupied --                  
-10.188 -10.188 -10.188 -10.187 -10.187 -10.187  -0.846  -0.740
  1 A1g   1 E1u   1 E1u   1 E2g   1 E2g   1 B1u   2 A1g   2 E1u                
 -0.740  -0.597  -0.597  -0.519  -0.459  -0.438  -0.417  -0.417
  2 E1u   2 E2g   2 E2g   3 A1g   2 B1u   1 B2u   3 E1u   3 E1u                
 -0.359  -0.340  -0.340  -0.246  -0.246
  1 A2u   3 E2g   3 E2g   1 E1g   1 E1g                                        
 -- Virtual --                   
  0.004   0.004   0.091   0.145   0.145   0.164   0.182   0.182
  1 E2u   1 E2u   4 A1g   4 E1u   4 E1u   1 B2g   4 E2g   4 E2g                
  0.190   0.303   0.303   0.319   0.319   0.475   0.527   0.549
  3 B1u   5 E2g   5 E2g   5 E1u   5 E1u   2 B2u   2 A2u   4 B1u                
  0.550   0.564   0.592   0.602   0.602   0.602   0.602   0.627
  5 A1g   1 A2g   6 A1g   0 xxx   0 xxx   0 xxx   0 xxx   6 E1u                
  0.627   0.667   0.668   0.745   0.840   0.840   0.841   0.865
  6 E1u   2 E2u   2 E2u   2 B2g   6 E2g   6 E2g   5 B1u   7 E1u                
  0.865   0.939   0.939   0.940   0.958   1.083   1.083   1.142
  7 E1u   8 E1u   8 E1u   7 A1g   2 A2g   7 E2g   7 E2g   9 E1u                
  1.142   1.201   1.262   1.396   1.436   1.436   1.487   1.487
  9 E1u   6 B1u   1 B1g   3 A2u   8 E2g   8 E2g   3 E2u   3 E2u                
  1.515   1.515   1.757   1.790   1.857   1.895   1.973   1.973
  2 E1g   2 E1g   8 A1g   3 B2u   9 A1g   7 B1u  10 E1u  10 E1u                
  2.066   2.066   2.151   2.152   2.154   2.154   2.309   2.309
  9 E2g   9 E2g   4 E2u   4 E2u  11 E1u  11 E1u   3 E1g   3 E1g                
  2.321   2.546   2.546   2.657   2.705   2.705   2.722   2.722
  3 B2g  10 E2g  10 E2g   1 A1u  11 E2g  11 E2g  12 E1u  12 E1u                
  2.760   3.017   3.410   4.085   4.118   4.118   4.330   4.330
  8 B1u   3 A2g   9 B1u  10 A1g  13 E1u  13 E1u  12 E2g  12 E2g                
  4.666
 10 B1u                                                                        
 
 Beta MOs, Restricted
 -- Occupied --                  
-10.188 -10.188 -10.188 -10.187 -10.187 -10.187  -0.846  -0.740
  1 A1g   1 E1u   1 E1u   1 E2g   1 E2g   1 B1u   2 A1g   2 E1u                
 -0.740  -0.597  -0.597  -0.519  -0.459  -0.438  -0.417  -0.417
  2 E1u   2 E2g   2 E2g   3 A1g   2 B1u   1 B2u   3 E1u   3 E1u                
 -0.359  -0.340  -0.340  -0.246  -0.246
  1 A2u   3 E2g   3 E2g   1 E1g   1 E1g                                        
 -- Virtual --                   
  0.004   0.004   0.091   0.145   0.145   0.164   0.182   0.182
  1 E2u   1 E2u   4 A1g   4 E1u   4 E1u   1 B2g   4 E2g   4 E2g                
  0.190   0.303   0.303   0.319   0.319   0.475   0.527   0.549
  3 B1u   5 E2g   5 E2g   5 E1u   5 E1u   2 B2u   2 A2u   4 B1u                
  0.550   0.564   0.592   0.602   0.602   0.602   0.602   0.627
  5 A1g   1 A2g   6 A1g   0 xxx   0 xxx   0 xxx   0 xxx   6 E1u                
  0.627   0.667   0.668   0.745   0.840   0.840   0.841   0.865
  6 E1u   2 E2u   2 E2u   2 B2g   6 E2g   6 E2g   5 B1u   7 E1u                
  0.865   0.939   0.939   0.940   0.958   1.083   1.083   1.142
  7 E1u   8 E1u   8 E1u   7 A1g   2 A2g   7 E2g   7 E2g   9 E1u                
  1.142   1.201   1.262   1.396   1.436   1.436   1.487   1.487
  9 E1u   6 B1u   1 B1g   3 A2u   8 E2g   8 E2g   3 E2u   3 E2u                
  1.515   1.515   1.757   1.790   1.857   1.895   1.973   1.973
  2 E1g   2 E1g   8 A1g   3 B2u   9 A1g   7 B1u  10 E1u  10 E1u                
  2.066   2.066   2.151   2.152   2.154   2.154   2.309   2.309
  9 E2g   9 E2g   4 E2u   4 E2u  11 E1u  11 E1u   3 E1g   3 E1g                
  2.321   2.546   2.546   2.657   2.705   2.705   2.722   2.722
  3 B2g  10 E2g  10 E2g   1 A1u  11 E2g  11 E2g  12 E1u  12 E1u                
  2.760   3.017   3.410   4.085   4.118   4.118   4.330   4.330
  8 B1u   3 A2g   9 B1u  10 A1g  13 E1u  13 E1u  12 E2g  12 E2g                
  4.666
 10 B1u                                                                        
 --------------------------------------------------------------
 

                        RESTRICTED (RHF) MOLECULAR ORBITAL COEFFICIENTS
                         1         2         3         4         5         6
 eigenvalues:        -10.188   -10.188   -10.188   -10.187   -10.187   -10.187
   1  H 1   s       -0.00019   0.00025   0.00000  -0.00021   0.00000  -0.00031
   2  H 1   s        0.00091  -0.00092   0.00000   0.00066   0.00000  -0.00095
   3  C 1   s        0.40938  -0.57603   0.00015   0.57029  -0.00010   0.40133
   4  C 1   s        0.01997  -0.02858   0.00001   0.02874   0.00000   0.02085
   5  C 1   px       0.00013   0.00004   0.00000  -0.00026   0.00000  -0.00027
   6  C 1   py       0.00000   0.00000  -0.00030   0.00000  -0.00023   0.00000
   7  C 1   pz       0.00000   0.00000   0.00000   0.00000   0.00000   0.00000
   8  C 1   s       -0.00264   0.00601   0.00000  -0.01146   0.00000  -0.02028
   9  C 1   px      -0.00034  -0.00043   0.00000   0.00240   0.00000   0.00845
  10  C 1   py       0.00000   0.00000   0.00155   0.00000   0.00146   0.00000
  11  C 1   pz       0.00000   0.00000   0.00000   0.00000   0.00000   0.00000
  12  C 1   dxx     -0.00398   0.00555   0.00000  -0.00524   0.00000  -0.00349
  13  C 1   dxy      0.00000   0.00000   0.00004   0.00000   0.00012   0.00000
  14  C 1   dyy     -0.00407   0.00558   0.00000  -0.00501   0.00000  -0.00329
  15  C 1   dxz      0.00000   0.00000   0.00000   0.00000   0.00000   0.00000
  16  C 1   dyz      0.00000   0.00000   0.00000   0.00000   0.00000   0.00000
  17  C 1   dzz     -0.00411   0.00560   0.00000  -0.00542   0.00000  -0.00359
  18  C 2   s        0.40934   0.57605  -0.00010   0.57027  -0.00015  -0.40137
  19  C 2   s        0.01997   0.02858   0.00000   0.02874  -0.00001  -0.02085
  20  C 2   px      -0.00013   0.00004   0.00000   0.00026   0.00000  -0.00027
  21  C 2   py       0.00000   0.00000  -0.00030   0.00000   0.00023   0.00000
  22  C 2   pz       0.00000   0.00000   0.00000   0.00000   0.00000   0.00000
  23  C 2   s       -0.00264  -0.00601   0.00000  -0.01145   0.00000   0.02028
  24  C 2   px       0.00034  -0.00043   0.00000  -0.00240   0.00000   0.00845
  25  C 2   py       0.00000   0.00000   0.00155   0.00000  -0.00146   0.00000
  26  C 2   pz       0.00000   0.00000   0.00000   0.00000   0.00000   0.00000
  27  C 2   dxx     -0.00397  -0.00555   0.00000  -0.00524   0.00000   0.00349
  28  C 2   dxy      0.00000   0.00000  -0.00004   0.00000   0.00012   0.00000
  29  C 2   dyy     -0.00407  -0.00558   0.00000  -0.00501   0.00000   0.00329
  30  C 2   dxz      0.00000   0.00000   0.00000   0.00000   0.00000   0.00000
  31  C 2   dyz      0.00000   0.00000   0.00000   0.00000   0.00000   0.00000
  32  C 2   dzz     -0.00411  -0.00561   0.00000  -0.00542   0.00000   0.00359
  33  C 3   s        0.40299  -0.28343   0.49638  -0.28955   0.49653  -0.40766
  34  C 3   s        0.01965  -0.01405   0.02462  -0.01458   0.02502  -0.02116
  35  C 3   px       0.00006   0.00023   0.00011  -0.00011  -0.00021   0.00014
  36  C 3   py       0.00011  -0.00012  -0.00010   0.00021  -0.00013   0.00023
  37  C 3   pz       0.00000   0.00000   0.00000   0.00000   0.00000   0.00000
  38  C 3   s       -0.00251   0.00278  -0.00508   0.00575  -0.00994   0.02034
  39  C 3   px      -0.00018  -0.00122  -0.00051   0.00049   0.00167  -0.00424
  40  C 3   py      -0.00032   0.00057   0.00066  -0.00167   0.00143  -0.00732
  41  C 3   pz       0.00000   0.00000   0.00000   0.00000   0.00000   0.00000
  42  C 3   dxx     -0.00399   0.00272  -0.00482   0.00265  -0.00437   0.00340
  43  C 3   dxy      0.00005  -0.00003   0.00000   0.00011  -0.00007   0.00010
  44  C 3   dyy     -0.00394   0.00277  -0.00477   0.00255  -0.00456   0.00350
  45  C 3   dxz      0.00000   0.00000   0.00000   0.00000   0.00000   0.00000
  46  C 3   dyz      0.00000   0.00000   0.00000   0.00000   0.00000   0.00000
  47  C 3   dzz     -0.00405   0.00276  -0.00483   0.00275  -0.00472   0.00365
  48  C 4   s        0.40304  -0.28366  -0.49623  -0.28975  -0.49643  -0.40761
  49  C 4   s        0.01965  -0.01406  -0.02461  -0.01459  -0.02501  -0.02116
  50  C 4   px       0.00006   0.00023  -0.00011  -0.00011   0.00021   0.00014
  51  C 4   py      -0.00011   0.00012  -0.00010  -0.00021  -0.00013  -0.00023
  52  C 4   pz       0.00000   0.00000   0.00000   0.00000   0.00000   0.00000
  53  C 4   s       -0.00251   0.00278   0.00508   0.00576   0.00994   0.02034
  54  C 4   px      -0.00018  -0.00122   0.00051   0.00049  -0.00167  -0.00424
  55  C 4   py       0.00032  -0.00057   0.00066   0.00167   0.00143   0.00732
  56  C 4   pz       0.00000   0.00000   0.00000   0.00000   0.00000   0.00000
  57  C 4   dxx     -0.00399   0.00272   0.00482   0.00266   0.00437   0.00340
  58  C 4   dxy     -0.00005   0.00003   0.00000  -0.00011  -0.00007  -0.00010
  59  C 4   dyy     -0.00394   0.00277   0.00477   0.00256   0.00456   0.00350
  60  C 4   dxz      0.00000   0.00000   0.00000   0.00000   0.00000   0.00000
  61  C 4   dyz      0.00000   0.00000   0.00000   0.00000   0.00000   0.00000
  62  C 4   dzz     -0.00405   0.00276   0.00483   0.00275   0.00472   0.00365
  63  C 5   s        0.40301   0.28348  -0.49634  -0.28950   0.49658   0.40764
  64  C 5   s        0.01965   0.01405  -0.02462  -0.01458   0.02502   0.02116
  65  C 5   px      -0.00006   0.00023   0.00011   0.00011   0.00021   0.00014
  66  C 5   py      -0.00011  -0.00012  -0.00010  -0.00021   0.00013   0.00023
  67  C 5   pz       0.00000   0.00000   0.00000   0.00000   0.00000   0.00000
  68  C 5   s       -0.00251  -0.00278   0.00508   0.00575  -0.00994  -0.02034
  69  C 5   px       0.00018  -0.00122  -0.00051  -0.00049  -0.00167  -0.00424
  70  C 5   py       0.00032   0.00057   0.00066   0.00167  -0.00143  -0.00732
  71  C 5   pz       0.00000   0.00000   0.00000   0.00000   0.00000   0.00000
  72  C 5   dxx     -0.00399  -0.00272   0.00482   0.00265  -0.00437  -0.00340
  73  C 5   dxy      0.00005   0.00003   0.00000   0.00011  -0.00007  -0.00010
  74  C 5   dyy     -0.00394  -0.00277   0.00477   0.00255  -0.00456  -0.00350
  75  C 5   dxz      0.00000   0.00000   0.00000   0.00000   0.00000   0.00000
  76  C 5   dyz      0.00000   0.00000   0.00000   0.00000   0.00000   0.00000
  77  C 5   dzz     -0.00405  -0.00276   0.00483   0.00275  -0.00472  -0.00365
  78  C 6   s        0.40297   0.28367   0.49625  -0.28974  -0.49642   0.40768
  79  C 6   s        0.01965   0.01406   0.02461  -0.01459  -0.02501   0.02116
  80  C 6   px      -0.00006   0.00023  -0.00011   0.00011  -0.00021   0.00014
  81  C 6   py       0.00011   0.00012  -0.00010   0.00021   0.00013  -0.00023
  82  C 6   pz       0.00000   0.00000   0.00000   0.00000   0.00000   0.00000
  83  C 6   s       -0.00251  -0.00278  -0.00508   0.00576   0.00993  -0.02034
  84  C 6   px       0.00018  -0.00122   0.00051  -0.00049   0.00167  -0.00424
  85  C 6   py      -0.00032  -0.00057   0.00066  -0.00167  -0.00143   0.00732
  86  C 6   pz       0.00000   0.00000   0.00000   0.00000   0.00000   0.00000
  87  C 6   dxx     -0.00399  -0.00272  -0.00482   0.00266   0.00437  -0.00340
  88  C 6   dxy     -0.00005  -0.00003   0.00000  -0.00011  -0.00007   0.00010
  89  C 6   dyy     -0.00394  -0.00277  -0.00477   0.00256   0.00456  -0.00350
  90  C 6   dxz      0.00000   0.00000   0.00000   0.00000   0.00000   0.00000
  91  C 6   dyz      0.00000   0.00000   0.00000   0.00000   0.00000   0.00000
  92  C 6   dzz     -0.00405  -0.00276  -0.00483   0.00275   0.00472  -0.00365
  93  H 2   s       -0.00019   0.00012  -0.00021   0.00011  -0.00019   0.00031
  94  H 2   s        0.00090  -0.00047   0.00080  -0.00034   0.00057   0.00094
  95  H 3   s       -0.00019   0.00012   0.00021   0.00011   0.00019   0.00031
  96  H 3   s        0.00090  -0.00047  -0.00080  -0.00034  -0.00057   0.00094
  97  H 4   s       -0.00019  -0.00012   0.00021   0.00011  -0.00019  -0.00031
  98  H 4   s        0.00090   0.00047  -0.00080  -0.00034   0.00057  -0.00094
  99  H 5   s       -0.00019  -0.00012  -0.00021   0.00011   0.00019  -0.00031
 100  H 5   s        0.00090   0.00047   0.00080  -0.00034  -0.00057  -0.00094
 101  H 6   s       -0.00019  -0.00025   0.00000  -0.00021   0.00000   0.00031
 102  H 6   s        0.00091   0.00092   0.00000   0.00066   0.00000   0.00095
                         7         8         9        10        11        12
 eigenvalues:         -0.846    -0.740    -0.740    -0.597    -0.597    -0.519
   1  H 1   s        0.03557  -0.00001  -0.07828   0.00000   0.11420   0.10830
   2  H 1   s        0.00420   0.00000  -0.01438   0.00000   0.03823   0.06714
   3  C 1   s       -0.09407   0.00002   0.13076   0.00000  -0.10249  -0.00855
   4  C 1   s        0.17968  -0.00004  -0.25817   0.00000   0.21209   0.01794
   5  C 1   px      -0.06037   0.00000   0.02158   0.00000   0.07076   0.19899
   6  C 1   py       0.00000   0.11487  -0.00002   0.20480   0.00000   0.00000
   7  C 1   pz       0.00000   0.00000   0.00000   0.00000   0.00000   0.00000
   8  C 1   s        0.11404  -0.00003  -0.19300   0.00000   0.16082   0.03085
   9  C 1   px      -0.00719   0.00000  -0.00994   0.00000   0.05736   0.06828
  10  C 1   py       0.00000   0.01816   0.00000   0.05393   0.00000   0.00000
  11  C 1   pz       0.00000   0.00000   0.00000   0.00000   0.00000   0.00000
  12  C 1   dxx      0.00300   0.00000  -0.00121   0.00000   0.00330   0.00036
  13  C 1   dxy      0.00000  -0.01067   0.00000  -0.00923   0.00000   0.00000
  14  C 1   dyy      0.00303   0.00000  -0.00257   0.00000  -0.00731   0.00348
  15  C 1   dxz      0.00000   0.00000   0.00000   0.00000   0.00000   0.00000
  16  C 1   dyz      0.00000   0.00000   0.00000   0.00000   0.00000   0.00000
  17  C 1   dzz     -0.01073   0.00000   0.01273   0.00000  -0.00817  -0.00014
  18  C 2   s       -0.09407  -0.00002  -0.13076   0.00000  -0.10249  -0.00855
  19  C 2   s        0.17968   0.00004   0.25817   0.00000   0.21209   0.01794
  20  C 2   px       0.06037   0.00000   0.02158   0.00000  -0.07076  -0.19899
  21  C 2   py       0.00000   0.11487  -0.00002  -0.20480   0.00000   0.00000
  22  C 2   pz       0.00000   0.00000   0.00000   0.00000   0.00000   0.00000
  23  C 2   s        0.11404   0.00003   0.19300   0.00000   0.16082   0.03085
  24  C 2   px       0.00719   0.00000  -0.00994   0.00000  -0.05736  -0.06828
  25  C 2   py       0.00000   0.01816   0.00000  -0.05393   0.00000   0.00000
  26  C 2   pz       0.00000   0.00000   0.00000   0.00000   0.00000   0.00000
  27  C 2   dxx      0.00300   0.00000   0.00121   0.00000   0.00330   0.00036
  28  C 2   dxy      0.00000   0.01067   0.00000  -0.00923   0.00000   0.00000
  29  C 2   dyy      0.00303   0.00000   0.00257   0.00000  -0.00731   0.00348
  30  C 2   dxz      0.00000   0.00000   0.00000   0.00000   0.00000   0.00000
  31  C 2   dyz      0.00000   0.00000   0.00000   0.00000   0.00000   0.00000
  32  C 2   dzz     -0.01073   0.00000  -0.01273   0.00000  -0.00817  -0.00014
  33  C 3   s       -0.09407  -0.11323   0.06540  -0.08876   0.05124  -0.00855
  34  C 3   s        0.17968   0.22355  -0.12912   0.18366  -0.10604   0.01795
  35  C 3   px      -0.03020  -0.05911  -0.08075   0.11932   0.13591   0.09951
  36  C 3   py      -0.05229   0.01253   0.05908   0.00187  -0.11932   0.17236
  37  C 3   pz       0.00000   0.00000   0.00000   0.00000   0.00000   0.00000
  38  C 3   s        0.11400   0.16715  -0.09658   0.13930  -0.08040   0.03088
  39  C 3   px      -0.00358  -0.00357  -0.01609   0.04815   0.02610   0.03414
  40  C 3   py      -0.00620   0.01197   0.00359   0.02953  -0.04817   0.05913
  41  C 3   pz       0.00000   0.00000   0.00000   0.00000   0.00000   0.00000
[...]
   26   0.0001518   0.0000017  -0.0000000  -0.0001752   0.0000986  -0.0000000
   27   0.0000000  -0.0000000  -0.0013533  -0.0000000  -0.0000000   0.0003537
   28   0.0005062   0.0008804   0.0000000   0.0009208  -0.0004207  -0.0000000
   29  -0.0008804  -0.0011234   0.0000000   0.0002592   0.0010006   0.0000000
   30  -0.0000000   0.0000000   0.0003527   0.0000000   0.0000000  -0.0039255
   31   0.1343049  -0.1298752   0.0000000   0.0009208   0.0004207  -0.0000000
   32  -0.1298752   0.2842684  -0.0000000  -0.0002592   0.0010006  -0.0000000
   33   0.0000000  -0.0000000   0.0252645   0.0000000   0.0000000  -0.0039255
   34   0.0009208  -0.0002592   0.0000000   0.3594596  -0.0000000   0.0000000
   35   0.0004207   0.0010006   0.0000000  -0.0000000   0.0594452  -0.0000000
   36  -0.0000000  -0.0000000  -0.0039255   0.0000000  -0.0000000   0.0254099
 Gradient time:  CPU 507.73 s  wall 507.77 s
 **********************************************************************
 **                                                                  **
 **                       VIBRATIONAL ANALYSIS                       **
 **                       --------------------                       **
 **                                                                  **
 **        VIBRATIONAL FREQUENCIES (CM**-1) AND NORMAL MODES         **
 **     FORCE CONSTANTS (mDYN/ANGSTROM) AND REDUCED MASSES (AMU)     **
 **                  INFRARED INTENSITIES (KM/MOL)                   **
 **                                                                  **
 **********************************************************************
 

 Mode:                 1                      2                      3
 Frequency:       413.29                 416.00                 622.98
 Force Cnst:      0.2969                 0.3017                 1.3928
 Red. Mass:       2.9502                 2.9586                 6.0911
 IR Active:          NO                     YES                    NO 
 IR Intens:        0.000                  0.000                  0.000
 Raman Active:       NO                     NO                     YES
               X      Y      Z        X      Y      Z        X      Y      Z
 H          0.000  0.000  0.000    0.000  0.000  0.523    0.000  0.223  0.000
 C          0.000  0.000  0.000    0.000  0.000  0.243    0.000 -0.155  0.000
 C          0.000  0.000  0.000    0.000  0.000  0.243    0.000  0.155  0.000
 C          0.000  0.000  0.210    0.000  0.000 -0.122   -0.223 -0.232  0.000
 C          0.000  0.000 -0.210    0.000  0.000 -0.122    0.223 -0.232  0.000
 C          0.000  0.000  0.210    0.000  0.000 -0.122    0.223  0.232  0.000
 C          0.000  0.000 -0.210    0.000  0.000 -0.122   -0.223  0.232  0.000
 H          0.000  0.000  0.454    0.000  0.000 -0.263   -0.059 -0.326  0.000
 H          0.000  0.000 -0.454    0.000  0.000 -0.263    0.059 -0.326  0.000
 H          0.000  0.000  0.454    0.000  0.000 -0.263    0.059  0.326  0.000
 H          0.000  0.000 -0.454    0.000  0.000 -0.263   -0.059  0.326  0.000
 H          0.000  0.000  0.000    0.000  0.000  0.523    0.000 -0.223  0.000
 TransDip   0.000  0.000  0.000    0.000  0.000  0.000    0.000  0.000  0.000

 Mode:                 4                      5                      6
 Frequency:       623.01                 691.86                 717.44
 Force Cnst:      1.3914                 0.3059                 1.1856
 Red. Mass:       6.0842                 1.0848                 3.9094
 IR Active:          NO                     YES                    NO 
 IR Intens:        0.000                 77.496                  0.000
 Raman Active:       YES                    NO                     YES
               X      Y      Z        X      Y      Z        X      Y      Z
 H         -0.360  0.000  0.000    0.000  0.000  0.406    0.000  0.000 -0.348
 C         -0.361  0.000  0.000    0.000  0.000 -0.034    0.000  0.000 -0.210
 C          0.361  0.000  0.000    0.000  0.000 -0.034    0.000  0.000  0.210
 C         -0.026  0.223  0.000    0.000  0.000 -0.034    0.000  0.000  0.210
 C         -0.026 -0.223  0.000    0.000  0.000 -0.034    0.000  0.000  0.210
 C          0.026 -0.223  0.000    0.000  0.000 -0.034    0.000  0.000 -0.210
 C          0.026  0.223  0.000    0.000  0.000 -0.034    0.000  0.000 -0.210
 H          0.258  0.059  0.000    0.000  0.000  0.407    0.000  0.000  0.351
 H          0.258 -0.059  0.000    0.000  0.000  0.407    0.000  0.000  0.351
 H         -0.258 -0.059  0.000    0.000  0.000  0.407    0.000  0.000 -0.351
 H         -0.258  0.059  0.000    0.000  0.000  0.407    0.000  0.000 -0.351
 H          0.360  0.000  0.000    0.000  0.000  0.406    0.000  0.000  0.348
 TransDip   0.000  0.000  0.000    0.000  0.000  0.282    0.000  0.000  0.000

 Mode:                 7                      8                      9
 Frequency:       862.21                 863.07                 966.61
 Force Cnst:      0.5465                 0.5476                 0.7473
 Red. Mass:       1.2477                 1.2477                 1.3576
 IR Active:          NO                     NO                     NO 
 IR Intens:        0.000                  0.000                  0.000
 Raman Active:       YES                    YES                    NO 
               X      Y      Z        X      Y      Z        X      Y      Z
 H          0.000  0.000  0.000    0.000  0.000 -0.568    0.000  0.000  0.000
 C          0.000  0.000  0.000    0.000  0.000  0.085    0.000  0.000  0.000
 C          0.000  0.000  0.000    0.000  0.000 -0.085    0.000  0.000  0.000
 C          0.000  0.000  0.074    0.000  0.000  0.043    0.000  0.000  0.089
 C          0.000  0.000 -0.074    0.000  0.000  0.043    0.000  0.000 -0.089
 C          0.000  0.000 -0.074    0.000  0.000 -0.043    0.000  0.000  0.089
 C          0.000  0.000  0.074    0.000  0.000 -0.043    0.000  0.000 -0.089
 H          0.000  0.000 -0.495    0.000  0.000 -0.288    0.000  0.000 -0.492
 H          0.000  0.000  0.495    0.000  0.000 -0.288    0.000  0.000  0.492
 H          0.000  0.000  0.495    0.000  0.000  0.288    0.000  0.000 -0.492
 H          0.000  0.000 -0.495    0.000  0.000  0.288    0.000  0.000  0.492
 H          0.000  0.000  0.000    0.000  0.000  0.568    0.000  0.000  0.000
 TransDip   0.000  0.000  0.000    0.000  0.000  0.000    0.000  0.000  0.000

 Mode:                10                     11                     12
 Frequency:       968.37                1009.18                1020.01
 Force Cnst:      0.7491                 0.7320                 4.0187
 Red. Mass:       1.3558                 1.2198                 6.5558
 IR Active:          YES                    NO                     YES
 IR Intens:        0.000                  0.000                  0.000
 Raman Active:       NO                     YES                    NO 
               X      Y      Z        X      Y      Z        X      Y      Z
 H          0.000  0.000  0.569    0.000  0.000  0.409    0.286  0.000  0.000
 C          0.000  0.000 -0.103    0.000  0.000 -0.057    0.289  0.000  0.000
 C          0.000  0.000 -0.103    0.000  0.000  0.057    0.289  0.000  0.000
 C          0.000  0.000  0.051    0.000  0.000  0.056   -0.145 -0.252  0.000
 C          0.000  0.000  0.051    0.000  0.000  0.056   -0.145  0.252  0.000
 C          0.000  0.000  0.051    0.000  0.000 -0.056   -0.145 -0.252  0.000
 C          0.000  0.000  0.051    0.000  0.000 -0.056   -0.145  0.252  0.000
 H          0.000  0.000 -0.283    0.000  0.000 -0.402   -0.139 -0.252  0.000
 H          0.000  0.000 -0.283    0.000  0.000 -0.402   -0.139  0.252  0.000
 H          0.000  0.000 -0.283    0.000  0.000  0.402   -0.139 -0.252  0.000
 H          0.000  0.000 -0.283    0.000  0.000  0.402   -0.139  0.252  0.000
 H          0.000  0.000  0.569    0.000  0.000 -0.409    0.286  0.000  0.000
 TransDip   0.000  0.000  0.001    0.000  0.000  0.000    0.000  0.000  0.000

 Mode:                13                     14                     15
 Frequency:      1020.90                1070.37                1070.50
 Force Cnst:      3.7049                 1.1473                 1.1463
 Red. Mass:       6.0334                 1.6996                 1.6977
 IR Active:          NO                     YES                    YES
 IR Intens:        0.000                  3.282                  3.319
 Raman Active:       YES                    NO                     NO 
               X      Y      Z        X      Y      Z        X      Y      Z
 H          0.301  0.000  0.000    0.000  0.542  0.000    0.128  0.000  0.000
 C          0.276  0.000  0.000    0.000  0.084  0.000    0.119  0.000  0.000
 C         -0.276  0.000  0.000    0.000  0.084  0.000    0.119  0.000  0.000
 C          0.138  0.239  0.000   -0.087 -0.068  0.000   -0.033  0.086  0.000
 C          0.138 -0.239  0.000    0.087 -0.068  0.000   -0.033 -0.086  0.000
 C         -0.138 -0.239  0.000   -0.087 -0.068  0.000   -0.033  0.086  0.000
 C         -0.138  0.239  0.000    0.087 -0.068  0.000   -0.033 -0.086  0.000
 H          0.150  0.261  0.000   -0.292  0.042  0.000   -0.377  0.290  0.000
 H          0.150 -0.261  0.000    0.292  0.042  0.000   -0.377 -0.290  0.000
 H         -0.150 -0.261  0.000   -0.292  0.042  0.000   -0.377  0.290  0.000
 H         -0.150  0.261  0.000    0.292  0.042  0.000   -0.377 -0.290  0.000
 H         -0.301  0.000  0.000    0.000  0.542  0.000    0.128  0.000  0.000
 TransDip   0.000  0.000  0.000    0.000  0.058  0.000   -0.058  0.000  0.000

 Mode:                16                     17                     18
 Frequency:      1187.47                1208.68                1209.83
 Force Cnst:      0.8983                 0.9784                 0.9815
 Red. Mass:       1.0812                 1.1367                 1.1382
 IR Active:          YES                    NO                     NO 
 IR Intens:        0.000                  0.000                  0.000
 Raman Active:       NO                     YES                    YES
               X      Y      Z        X      Y      Z        X      Y      Z
 H          0.000  0.407  0.000    0.003  0.000  0.000    0.000  0.573  0.000
 C          0.000  0.034  0.000    0.003  0.000  0.000    0.000  0.063  0.000
 C          0.000  0.034  0.000   -0.003  0.000  0.000    0.000 -0.063  0.000
 C          0.028 -0.017  0.000    0.046 -0.028  0.000    0.028 -0.014  0.000
 C         -0.028 -0.017  0.000    0.046  0.028  0.000   -0.028 -0.014  0.000
 C          0.028 -0.017  0.000   -0.046  0.028  0.000   -0.028  0.014  0.000
 C         -0.028 -0.017  0.000   -0.046 -0.028  0.000    0.028  0.014  0.000
 H          0.352 -0.204  0.000    0.430 -0.250  0.000    0.250 -0.142  0.000
 H         -0.352 -0.204  0.000    0.430  0.250  0.000   -0.250 -0.142  0.000
 H          0.352 -0.204  0.000   -0.430  0.250  0.000   -0.250  0.142  0.000
 H         -0.352 -0.204  0.000   -0.430 -0.250  0.000    0.250  0.142  0.000
 H          0.000  0.407  0.000   -0.003  0.000  0.000    0.000 -0.573  0.000
 TransDip   0.000  0.000  0.000    0.000  0.000  0.000    0.000  0.000  0.000

 Mode:                19                     20                     21
 Frequency:      1357.58                1387.76                1532.23
 Force Cnst:      7.2063                 1.4157                 2.7905
 Red. Mass:       6.6364                 1.2477                 2.0174
 IR Active:          YES                    NO                     YES
 IR Intens:        0.000                  0.000                  6.555
 Raman Active:       NO                     YES                    NO 
               X      Y      Z        X      Y      Z        X      Y      Z
 H          0.000 -0.287  0.000    0.000  0.405  0.000    0.000  0.540  0.000
 C          0.000  0.292  0.000    0.000 -0.060  0.000    0.000 -0.148  0.000
 C          0.000  0.292  0.000    0.000  0.060  0.000    0.000 -0.148  0.000
 C          0.253 -0.146  0.000    0.052 -0.030  0.000    0.104  0.033  0.000
 C         -0.253 -0.146  0.000   -0.052 -0.030  0.000   -0.104  0.033  0.000
 C          0.253 -0.146  0.000   -0.052  0.030  0.000    0.104  0.033  0.000
 C         -0.253 -0.146  0.000    0.052  0.030  0.000   -0.104  0.033  0.000
 H         -0.246  0.143  0.000   -0.349  0.202  0.000   -0.183  0.219  0.000
 H          0.246  0.143  0.000    0.349  0.202  0.000    0.183  0.219  0.000
 H         -0.246  0.143  0.000    0.349 -0.202  0.000   -0.183  0.219  0.000
 H          0.246  0.143  0.000   -0.349 -0.202  0.000    0.183  0.219  0.000
 H          0.000 -0.287  0.000    0.000 -0.405  0.000    0.000  0.540  0.000
 TransDip   0.000  0.000  0.000    0.000  0.000  0.000    0.000  0.082  0.000

 Mode:                22                     23                     24
 Frequency:      1532.96                1656.64                1657.10
 Force Cnst:      2.7970                 8.6248                 8.5699
 Red. Mass:       2.0202                 5.3339                 5.2969
 IR Active:          YES                    NO                     NO 
 IR Intens:        6.448                  0.000                  0.000
 Raman Active:       NO                     YES                    YES
               X      Y      Z        X      Y      Z        X      Y      Z
 H          0.114  0.000  0.000    0.166  0.000  0.000    0.000 -0.419  0.000
 C          0.093  0.000  0.000    0.149  0.000  0.000    0.000  0.328  0.000
 C          0.093  0.000  0.000   -0.149  0.000  0.000    0.000 -0.328  0.000
 C         -0.088  0.105  0.000   -0.285  0.078  0.000    0.078 -0.194  0.000
 C         -0.088 -0.105  0.000   -0.285 -0.078  0.000   -0.078 -0.194  0.000
 C         -0.088  0.105  0.000    0.285 -0.078  0.000   -0.078  0.194  0.000
 C         -0.088 -0.105  0.000    0.285  0.078  0.000    0.078  0.194  0.000
 H          0.432 -0.184  0.000    0.272 -0.253  0.000   -0.254 -0.019  0.000
 H          0.432  0.184  0.000    0.272  0.253  0.000    0.254 -0.019  0.000
 H          0.432 -0.184  0.000   -0.272  0.253  0.000    0.254  0.019  0.000
 H          0.432  0.184  0.000   -0.272 -0.253  0.000   -0.254  0.019  0.000
 H          0.114  0.000  0.000   -0.166  0.000  0.000    0.000  0.419  0.000
 TransDip   0.081  0.000  0.000    0.000  0.000  0.000    0.000  0.000  0.000

 Mode:                25                     26                     27
 Frequency:      3175.16                3184.40                3185.16
 Force Cnst:      6.4352                 6.4971                 6.5002
 Red. Mass:       1.0834                 1.0875                 1.0875
 IR Active:          YES                    NO                     NO 
 IR Intens:        0.020                  0.000                  0.000
 Raman Active:       NO                     YES                    YES
               X      Y      Z        X      Y      Z        X      Y      Z
 H          0.396  0.000  0.000    0.000  0.002  0.000    0.569  0.000  0.000
 C         -0.033  0.000  0.000    0.000 -0.002  0.000   -0.049  0.000  0.000
 C         -0.033  0.000  0.000    0.000  0.002  0.000    0.049  0.000  0.000
 C          0.017  0.030  0.000    0.020  0.037  0.000    0.014  0.021  0.000
 C          0.017 -0.030  0.000   -0.020  0.037  0.000    0.014 -0.021  0.000
 C          0.017  0.030  0.000   -0.020 -0.037  0.000   -0.014 -0.021  0.000
 C          0.017 -0.030  0.000    0.020 -0.037  0.000   -0.014  0.021  0.000
 H         -0.206 -0.357  0.000   -0.248 -0.432  0.000   -0.149 -0.253  0.000
 H         -0.206  0.357  0.000    0.248 -0.432  0.000   -0.149  0.253  0.000
 H         -0.206 -0.357  0.000    0.248  0.432  0.000    0.149  0.253  0.000
 H         -0.206  0.357  0.000   -0.248  0.432  0.000    0.149 -0.253  0.000
 H          0.396  0.000  0.000    0.000 -0.002  0.000   -0.569  0.000  0.000
 TransDip   0.005  0.000  0.000    0.000  0.000  0.000    0.000  0.000  0.000

 Mode:                28                     29                     30
 Frequency:      3200.23                3200.73                3211.10
 Force Cnst:      6.6066                 6.6089                 6.6773
 Red. Mass:       1.0949                 1.0949                 1.0991
 IR Active:          YES                    YES                    NO 
 IR Intens:       51.935                 51.902                  0.000
 Raman Active:       NO                     NO                     YES
               X      Y      Z        X      Y      Z        X      Y      Z
 H          0.000 -0.005  0.000    0.583  0.000  0.000    0.415  0.000  0.000
 C          0.000  0.003  0.000   -0.052  0.000  0.000   -0.038  0.000  0.000
 C          0.000  0.003  0.000   -0.052  0.000  0.000    0.038  0.000  0.000
 C         -0.024 -0.038  0.000   -0.010 -0.023  0.000   -0.018 -0.032  0.000
 C          0.024 -0.038  0.000   -0.010  0.023  0.000   -0.018  0.032  0.000
 C         -0.024 -0.038  0.000   -0.010 -0.023  0.000    0.018  0.032  0.000
 C          0.024 -0.038  0.000   -0.010  0.023  0.000    0.018 -0.032  0.000
 H          0.251  0.430  0.000    0.136  0.244  0.000    0.201  0.348  0.000
 H         -0.251  0.430  0.000    0.136 -0.244  0.000    0.201 -0.348  0.000
 H          0.251  0.430  0.000    0.136  0.244  0.000   -0.201 -0.348  0.000
 H         -0.251  0.430  0.000    0.136 -0.244  0.000   -0.201  0.348  0.000
 H          0.000 -0.005  0.000    0.583  0.000  0.000   -0.415  0.000  0.000
 TransDip   0.000 -0.231  0.000   -0.231  0.000  0.000    0.000  0.000  0.000

 STANDARD THERMODYNAMIC QUANTITIES AT   298.18 K  AND     1.00 ATM

   This Molecule has  0 Imaginary Frequencies
   Zero point vibrational energy:       63.220 kcal/mol

   Atom    1 Element H  Has Mass    1.00783
   Atom    2 Element C  Has Mass   12.00000
   Atom    3 Element C  Has Mass   12.00000
   Atom    4 Element C  Has Mass   12.00000
   Atom    5 Element C  Has Mass   12.00000
   Atom    6 Element C  Has Mass   12.00000
   Atom    7 Element C  Has Mass   12.00000
   Atom    8 Element H  Has Mass    1.00783
   Atom    9 Element H  Has Mass    1.00783
   Atom   10 Element H  Has Mass    1.00783
   Atom   11 Element H  Has Mass    1.00783
   Atom   12 Element H  Has Mass    1.00783
   Molecular Mass:    78.046980 amu
   Principal axes and moments of inertia in atomic units:
                           1         2         3
    Eigenvalues --    317.35364 317.35364 634.70729
          X             1.00000   0.00000   0.00000
          Y             0.00000   1.00000   0.00000
          Z             0.00000   0.00000   1.00000
   Rotational Symmetry Number is  12
   The Molecule is a Symmetric Top
   Translational Enthalpy:        0.889 kcal/mol
   Rotational Enthalpy:           0.889 kcal/mol
   Vibrational Enthalpy:         64.196 kcal/mol
   gas constant (RT):             0.593 kcal/mol
   Translational Entropy:        38.980  cal/mol.K
   Rotational Entropy:           20.723  cal/mol.K
   Vibrational Entropy:           4.384  cal/mol.K

   Total Enthalpy:               66.566 kcal/mol
   Total Entropy:                64.086  cal/mol.K
Archival summary:
1\1\node08\FREQ\ProcedureUnspecified\6-31G*\C6H6\rkanters\2009Wed42009\0\\#,FREQ,ProcedureUnspecified,6-31G*,\\0,1\C\H,1,1.08704\C,1,1.3966,2,120\H,3,1.08704,1,120,2,0,0\C,3,1.3966,1,120,2,-180,0\H,5,1.08704,3,120,1,-180,0\C,1,1.3966,2,120,3,-180,0\H,7,1.08704,1,120,2,0,0\C,7,1.3966,1,120,2,180,0\H,9,1.08704,7,120,1,-180,0\C,9,1.3966,7,120,1,0,0\H,11,1.08704,9,120,7,180,0\\\@

 Total job time:  514.63s(wall), 518.62s(cpu) 
 Wed Mar  4 18:06:30 2009

        *************************************************************
        *                                                           *
        *  Thank you very much for using Q-Chem.  Have a nice day.  *
        *                                                           *
        *************************************************************


0 sent ACK to 0 
now end server 0 ... 
