Process 0 of 1 is on node09 - thread support 1
initial socket setup ...start
initial socket setup ...done 
now start server 0 ... 
                  Welcome to Q-Chem
     A Quantum Leap Into The Future Of Chemistry

 Y. Shao, L. Fusti-Molnar, Y. Jung, J. Kussmann, C. Ochsenfeld,
 S. T. Brown, A. T. B. Gilbert, L. V. Slipchenko,S. V. Levchenko,
 D. P. O'Neill, R. A. DiStasio Jr., R. C. Lochan, T. Wang,
 G. J. O. Beran, N. A. Besley, J. M. Herbert, C. Y. Lin,
 T. Van Voorhis, S. H. Chien, A. Sodt, R. P. Steele, 
 V. A. Rassolov, P. E. Maslen, P. P. Korambath, R. D. Adamson,
 B. Austin, J. Baker, E. F. C. Byrd, H. Dachsel, R. J. Doerksen,
 A. Dreuw, B. D. Dunietz, A. D. Dutoi, T. R. Furlani,
 S. R. Gwaltney, A. Heyden, S. Hirata, C.-P. Hsu, G. Kedziora,
 R. Z. Khaliullin, P. Klunzinger, A. M. Lee, M. S. Lee, W. Liang,
 I. Lotan, N. Nair, B. Peters, E. I. Proynov, P. A. Pieniazek, 
 Y. M. Rhee, J. Ritchie, E. Rosta, C. D. Sherrill, 
 A. C. Simmonett, J. E. Subotnik, H. L. Woodcock III,
 W. Zhang, A. T. Bell, A. K. Chakraborty, D. M. Chipman,
 F. J. Keil, A. Warshel, W. J. Hehre, H. F. Schaefer III,
 J. Kong, A. I. Krylov, P. M. W. Gill, M. Head-Gordon,
 Q-Chem, Version 3.1, Q-Chem, Inc., Pittsburgh, PA (2007).

 Additional authors for Version 3.1: 
 Z. Gan, Y. Zhao, N. E. Schultz, D. Truhlar, E. Epifanovsky and M. Oana.

 Additional authors for Version 3.2: 
 R. Baer, B. R. Brooks, D. Casanova, J.-D. Chai, C.-L. Cheng, 
 C. Cramer, D. Crittenden, A. Ghysels, G. Hawkins, E. G. Hohenstein, 
 C. Kelley, W. Kurlancheek, D. Liotard, E. Livshits, P. Manohar, 
 A. Marenich, D. Neuhauser, R. Olson, M. A. Rohrdanz, K. S. Thanthiriwatte, 
 A. J. W. Thom, V. Vanovschi, C. F. Williams, Q. Wu and Z.-Q. You. 


 Intel X86 EM64T Linux Version

 Q-chem begins on Tue Apr  7 07:48:50 2009  

 Parallel job on  1  processors
Processing $rem in /usr/local/qchem3201/config/preferences.

theFileMan(): MAXOPENFILES=974 MAX_SUB_FILE_NUM=16
Maximum size of a physical file is 2.0 GB, maximum size of a tmp-file is 32.0 GB


--------------------------------------------------------------
User input:
--------------------------------------------------------------
$comment
  Benzene+ UB3LYP/6-31G*
$end

$molecule
1 2
 C 
 H  1 1.084672
 C  1 1.391291 2 120.799401
 H  3 1.086372 1 120.612936 2 0.000000 0
 C  1 1.391291 2 120.799407 3 -180.000000 0
 H  5 1.086371 1 120.612927 2 0.000000 0 
 C  5 1.453415 1 120.799408 2 -180.000000 0
 H  7 1.086371 5 118.587662 1 -180.000000 0
 C  7 1.391291 5 120.799405 1 0.000000 0
 H  9 1.084672 7 120.799412 5 -180.000000 0
 C  9 1.391291 7 118.401191 5 0.000000 0
 H  11 1.086372 9 120.612935 7 -180.000000 0
$end

$rem
  sym_ignore          TRUE
  jobtype             SP
  exchange            B3LYP
  basis               6-31G*
  unrestricted        TRUE

  print_general_basis TRUE
  print_orbitals      TRUE
$end

--------------------------------------------------------------
 Writing REM_CC_EA           12
 ----------------------------------------------------
       Standard Nuclear Orientation (Angstroms)
    I     Atom         X            Y            Z
 ----------------------------------------------------
    1      C       0.000000     0.000000     0.000000
    2      H       0.000000     0.000000     1.084672
    3      C       1.195071     0.000000    -0.712388
    4      H       2.148999     0.000000    -0.192556
    5      C      -1.195071     0.000000    -0.712388
    6      H      -2.148998     0.000000    -0.192557
    7      C      -1.195071     0.000000    -2.165803
    8      H      -2.148998     0.000000    -2.685635
    9      C       0.000000     0.000000    -2.878192
   10      H       0.000000     0.000000    -3.962864
   11      C       1.195071     0.000000    -2.165803
   12      H       2.148999     0.000000    -2.685635
 ----------------------------------------------------
 Nuclear Repulsion Energy =   201.3896721949 hartrees
 There are       21 alpha and       20 beta electrons
 Requested basis set is 6-31G(d)
Basis set in general basis input format:
-----------------------------------------------------------------------
$basis
C    0
S    6    1.000000
   3.04752490E+03    1.83470000E-03 
   4.57369510E+02    1.40373000E-02 
   1.03948690E+02    6.88426000E-02 
   2.92101550E+01    2.32184400E-01 
   9.28666300E+00    4.67941300E-01 
   3.16392700E+00    3.62312000E-01 
SP   3    1.000000
   7.86827240E+00   -1.19332400E-01   6.89991000E-02 
   1.88128850E+00   -1.60854200E-01   3.16424000E-01 
   5.44249300E-01    1.14345640E+00   7.44308300E-01 
SP   1    1.000000
   1.68714400E-01    1.00000000E+00   1.00000000E+00 
D    1    1.000000
   8.00000000E-01    1.00000000E+00 
****
H    0
S    3    1.000000
   1.87311370E+01    3.34946000E-02 
   2.82539370E+00    2.34726950E-01 
   6.40121700E-01    8.13757330E-01 
S    1    1.000000
   1.61277800E-01    1.00000000E+00 
****
C    0
S    6    1.000000
   3.04752490E+03    1.83470000E-03 
   4.57369510E+02    1.40373000E-02 
   1.03948690E+02    6.88426000E-02 
   2.92101550E+01    2.32184400E-01 
   9.28666300E+00    4.67941300E-01 
   3.16392700E+00    3.62312000E-01 
SP   3    1.000000
   7.86827240E+00   -1.19332400E-01   6.89991000E-02 
   1.88128850E+00   -1.60854200E-01   3.16424000E-01 
   5.44249300E-01    1.14345640E+00   7.44308300E-01 
SP   1    1.000000
   1.68714400E-01    1.00000000E+00   1.00000000E+00 
D    1    1.000000
   8.00000000E-01    1.00000000E+00 
****
H    0
S    3    1.000000
   1.87311370E+01    3.34946000E-02 
   2.82539370E+00    2.34726950E-01 
   6.40121700E-01    8.13757330E-01 
S    1    1.000000
   1.61277800E-01    1.00000000E+00 
****
C    0
S    6    1.000000
   3.04752490E+03    1.83470000E-03 
   4.57369510E+02    1.40373000E-02 
   1.03948690E+02    6.88426000E-02 
   2.92101550E+01    2.32184400E-01 
   9.28666300E+00    4.67941300E-01 
   3.16392700E+00    3.62312000E-01 
SP   3    1.000000
   7.86827240E+00   -1.19332400E-01   6.89991000E-02 
   1.88128850E+00   -1.60854200E-01   3.16424000E-01 
   5.44249300E-01    1.14345640E+00   7.44308300E-01 
SP   1    1.000000
   1.68714400E-01    1.00000000E+00   1.00000000E+00 
D    1    1.000000
   8.00000000E-01    1.00000000E+00 
****
H    0
S    3    1.000000
   1.87311370E+01    3.34946000E-02 
   2.82539370E+00    2.34726950E-01 
   6.40121700E-01    8.13757330E-01 
S    1    1.000000
   1.61277800E-01    1.00000000E+00 
****
C    0
S    6    1.000000
   3.04752490E+03    1.83470000E-03 
   4.57369510E+02    1.40373000E-02 
   1.03948690E+02    6.88426000E-02 
   2.92101550E+01    2.32184400E-01 
   9.28666300E+00    4.67941300E-01 
   3.16392700E+00    3.62312000E-01 
SP   3    1.000000
   7.86827240E+00   -1.19332400E-01   6.89991000E-02 
   1.88128850E+00   -1.60854200E-01   3.16424000E-01 
   5.44249300E-01    1.14345640E+00   7.44308300E-01 
SP   1    1.000000
   1.68714400E-01    1.00000000E+00   1.00000000E+00 
D    1    1.000000
   8.00000000E-01    1.00000000E+00 
****
H    0
S    3    1.000000
   1.87311370E+01    3.34946000E-02 
   2.82539370E+00    2.34726950E-01 
   6.40121700E-01    8.13757330E-01 
S    1    1.000000
   1.61277800E-01    1.00000000E+00 
****
C    0
S    6    1.000000
   3.04752490E+03    1.83470000E-03 
   4.57369510E+02    1.40373000E-02 
   1.03948690E+02    6.88426000E-02 
   2.92101550E+01    2.32184400E-01 
   9.28666300E+00    4.67941300E-01 
   3.16392700E+00    3.62312000E-01 
SP   3    1.000000
   7.86827240E+00   -1.19332400E-01   6.89991000E-02 
   1.88128850E+00   -1.60854200E-01   3.16424000E-01 
   5.44249300E-01    1.14345640E+00   7.44308300E-01 
SP   1    1.000000
   1.68714400E-01    1.00000000E+00   1.00000000E+00 
D    1    1.000000
   8.00000000E-01    1.00000000E+00 
****
H    0
S    3    1.000000
   1.87311370E+01    3.34946000E-02 
   2.82539370E+00    2.34726950E-01 
   6.40121700E-01    8.13757330E-01 
S    1    1.000000
   1.61277800E-01    1.00000000E+00 
****
C    0
S    6    1.000000
   3.04752490E+03    1.83470000E-03 
   4.57369510E+02    1.40373000E-02 
   1.03948690E+02    6.88426000E-02 
   2.92101550E+01    2.32184400E-01 
   9.28666300E+00    4.67941300E-01 
   3.16392700E+00    3.62312000E-01 
SP   3    1.000000
   7.86827240E+00   -1.19332400E-01   6.89991000E-02 
   1.88128850E+00   -1.60854200E-01   3.16424000E-01 
   5.44249300E-01    1.14345640E+00   7.44308300E-01 
SP   1    1.000000
   1.68714400E-01    1.00000000E+00   1.00000000E+00 
D    1    1.000000
   8.00000000E-01    1.00000000E+00 
****
H    0
S    3    1.000000
   1.87311370E+01    3.34946000E-02 
   2.82539370E+00    2.34726950E-01 
   6.40121700E-01    8.13757330E-01 
S    1    1.000000
   1.61277800E-01    1.00000000E+00 
****
$end
-----------------------------------------------------------------------
 There are 36 shells and 102 basis functions

Total QAlloc Memory Limit   2000 MB
Mega-Array Size        61 MB
MEM_STATIC part        62 MB

                       Distance Matrix (Angstroms)
             C (  1)   H (  2)   C (  3)   H (  4)   C (  5)   H (  6)
   H (  2)  1.084672
   C (  3)  1.391291  2.158152
   H (  4)  2.157608  2.499901  1.086372
   C (  5)  1.391291  2.158152  2.390141  3.384232
   H (  6)  2.157607  2.499901  3.384231  4.297996  1.086371
   C (  7)  2.473641  3.463204  2.797354  3.882847  1.453415  2.191730
   H (  8)  3.439597  4.339747  3.882846  4.968724  2.191730  2.493078
   C (  9)  2.878192  3.962864  2.473641  3.439598  2.473640  3.439597
   H ( 10)  3.962864  5.047536  3.463204  4.339748  3.463204  4.339747
   C ( 11)  2.473641  3.463204  1.453415  2.191731  2.797354  3.882846
   H ( 12)  3.439598  4.339748  2.191731  2.493079  3.882847  4.968724
             C (  7)   H (  8)   C (  9)   H ( 10)   C ( 11)
   H (  8)  1.086371
   C (  9)  1.391291  2.157607
   H ( 10)  2.158152  2.499901  1.084672
   C ( 11)  2.390141  3.384231  1.391291  2.158152
   H ( 12)  3.384232  4.297996  2.157608  2.499901  1.086372
 
 A cutoff of  1.0D-08 yielded    622 shell pairs
 There are   5331 function pairs
Evaluating contribution to one-electron hamiltonian from nuclear
 Smallest overlap matrix eigenvalue = 5.77E-04
 Multipole matrices computed through 2nd order

  Scale SEOQF with 1.000000e-01/1.000000e+00/1.000000e-01

 Standard Electronic Orientation quadrupole field applied
 Nucleus-field energy     =    -0.0000000135 hartrees
 Guess from superposition of atomic densities
 Warning:  Energy on first SCF cycle will be non-variational
 An unrestricted hybrid HF-DFT SCF calculation will be
 performed using Pulay DIIS extrapolation
 Exchange:     0.2000 Hartree-Fock + 0.0800 Slater + 0.7200 Becke
 Correlation:  0.8100 LYP + 0.1900 VWN1RPA
 Using SG-1 standard quadrature grid
 SCF converges when DIIS error is below 1.0E-05
 Warning!  Inaccurate integrated density:
   Number of electrons =    41
   Numerical integral  =    42.000930332120
   Relative error      =     2.4412934930 %
 ---------------------------------------
  Cycle       Energy         DIIS Error
 ---------------------------------------
    1    -233.3999493355      7.69E-02
    2    -231.8916432634      4.65E-03
    3    -231.8943516406      4.57E-03
    4    -231.9219992926      8.01E-04
    5    -231.9228440022      2.46E-04
    6    -231.9229696218      4.90E-05
    7    -231.9229891186      2.68E-06 Convergence criterion met
 ---------------------------------------
 <S^2> = 0.7650
 SCF time:  CPU 24.46 s  wall 17.41 s
 Analysis of SCF Wavefunction
 
 --------------------------------------------------------------
                    Orbital Energies (a.u.)
 --------------------------------------------------------------
 
 Alpha MOs
 -- Occupied --
-10.450 -10.449 -10.449 -10.449 -10.413 -10.413  -1.089  -0.981
 -0.980  -0.837  -0.827  -0.744  -0.684  -0.678  -0.647  -0.644
 -0.603  -0.575  -0.566  -0.498  -0.485
 -- Virtual --
 -0.261  -0.222  -0.100  -0.083  -0.044  -0.041  -0.026  -0.006
  0.002   0.069   0.077   0.093   0.101   0.265   0.297   0.300
  0.312   0.319   0.365   0.371   0.375   0.384   0.386   0.398
  0.405   0.435   0.454   0.527   0.624   0.626   0.647   0.659
  0.672   0.705   0.721   0.731   0.734   0.849   0.875   0.902
  0.915   0.978   1.011   1.154   1.202   1.213   1.230   1.238
  1.265   1.267   1.505   1.531   1.621   1.656   1.731   1.744
  1.788   1.822   1.853   1.872   1.903   1.931   1.995   2.074
  2.076   2.270   2.321   2.379   2.417   2.441   2.461   2.490
  2.518   2.762   3.128   3.822   3.844   3.897   4.083   4.091
  4.412
 
 Beta MOs
 -- Occupied --
-10.445 -10.445 -10.445 -10.445 -10.414 -10.414  -1.078  -0.977
 -0.962  -0.828  -0.822  -0.741  -0.680  -0.673  -0.647  -0.639
 -0.573  -0.571  -0.563  -0.478
 -- Virtual --
 -0.405  -0.220  -0.210  -0.098  -0.061  -0.042  -0.041  -0.017
 -0.005   0.007   0.074   0.081   0.095   0.104   0.267   0.311
  0.311   0.314   0.324   0.370   0.380   0.388   0.389   0.395
  0.399   0.416   0.455   0.458   0.537   0.628   0.628   0.648
  0.663   0.673   0.708   0.727   0.733   0.735   0.858   0.877
  0.902   0.922   0.981   1.027   1.168   1.207   1.217   1.248
  1.249   1.270   1.290   1.527   1.534   1.623   1.662   1.734
  1.752   1.790   1.829   1.873   1.897   1.907   1.939   2.019
  2.083   2.085   2.289   2.324   2.393   2.423   2.446   2.462
  2.491   2.529   2.764   3.132   3.829   3.856   3.899   4.092
  4.095   4.418
 --------------------------------------------------------------
 

                        ALPHA MOLECULAR ORBITAL COEFFICIENTS
                         1         2         3         4         5         6
 eigenvalues:        -10.450   -10.449   -10.449   -10.449   -10.413   -10.413
   1  C 1   s        0.00512   0.00547  -0.00583   0.00479  -0.51010   0.85170
   2  C 1   s       -0.00012  -0.00013   0.00033  -0.00027  -0.02578   0.04255
   3  C 1   px      -0.00020   0.00019   0.00012   0.00015   0.00000   0.00000
   4  C 1   py       0.00000   0.00000   0.00000   0.00000   0.00000   0.00000
   5  C 1   pz       0.00019   0.00020  -0.00014   0.00011   0.00033  -0.00048
   6  C 1   s        0.00301   0.00316  -0.01010   0.00826   0.01334  -0.01467
   7  C 1   px       0.00107  -0.00099  -0.00085  -0.00105   0.00000   0.00000
   8  C 1   py       0.00000   0.00000   0.00000   0.00000   0.00000   0.00000
   9  C 1   pz      -0.00119  -0.00124   0.00530  -0.00433  -0.00485   0.00340
  10  C 1   dxx     -0.00028  -0.00029   0.00040  -0.00033   0.00465  -0.00775
  11  C 1   dxy      0.00000   0.00000   0.00000   0.00000   0.00000   0.00000
  12  C 1   dyy     -0.00018  -0.00020   0.00026  -0.00021   0.00481  -0.00823
  13  C 1   dxz      0.00004  -0.00003  -0.00006  -0.00007   0.00000   0.00000
  14  C 1   dyz      0.00000   0.00000   0.00000   0.00000   0.00000   0.00000
  15  C 1   dzz     -0.00018  -0.00019   0.00026  -0.00022   0.00472  -0.00793
  16  H 1   s       -0.00002  -0.00002  -0.00009   0.00008   0.00030  -0.00036
  17  H 1   s        0.00027   0.00029  -0.00110   0.00090   0.00020   0.00085
  18  C 2   s        0.70343   0.02429  -0.69652  -0.07055   0.00419  -0.00681
  19  C 2   s        0.03512   0.00108  -0.03555  -0.00336   0.00064  -0.00082
  20  C 2   px      -0.00019   0.00006   0.00027   0.00004  -0.00017   0.00031
  21  C 2   py       0.00000   0.00000   0.00000   0.00000   0.00000   0.00000
  22  C 2   pz      -0.00003   0.00001   0.00046   0.00000   0.00011  -0.00008
  23  C 2   s       -0.00733  -0.00044   0.01946  -0.00348  -0.00806   0.00552
  24  C 2   px       0.00106  -0.00004  -0.00534   0.00232   0.00403  -0.00266
  25  C 2   py       0.00000   0.00000   0.00000   0.00000   0.00000   0.00000
  26  C 2   pz      -0.00051  -0.00003  -0.00404   0.00105   0.00129   0.00000
  27  C 2   dxx     -0.00683  -0.00018   0.00647   0.00073   0.00019  -0.00026
  28  C 2   dxy      0.00000   0.00000   0.00000   0.00000   0.00000   0.00000
  29  C 2   dyy     -0.00688  -0.00030   0.00648   0.00075   0.00010  -0.00009
  30  C 2   dxz     -0.00002  -0.00002   0.00009   0.00002  -0.00006   0.00015
  31  C 2   dyz      0.00000   0.00000   0.00000   0.00000   0.00000   0.00000
  32  C 2   dzz     -0.00707  -0.00023   0.00626   0.00064   0.00018  -0.00019
  33  H 2   s       -0.00028  -0.00001   0.00033  -0.00006  -0.00008   0.00001
  34  H 2   s        0.00111   0.00020   0.00012  -0.00067  -0.00079   0.00045
  35  C 3   s       -0.02422   0.69888  -0.07109   0.70104   0.00419  -0.00682
  36  C 3   s       -0.00134   0.03488  -0.00387   0.03572   0.00064  -0.00082
  37  C 3   px      -0.00008   0.00018  -0.00002   0.00027   0.00017  -0.00031
  38  C 3   py       0.00000   0.00000   0.00000   0.00000   0.00000   0.00000
  39  C 3   pz       0.00001  -0.00003   0.00009  -0.00045   0.00011  -0.00008
  40  C 3   s        0.00002  -0.00722   0.00732  -0.01842  -0.00806   0.00552
  41  C 3   px       0.00009  -0.00102   0.00335  -0.00478  -0.00403   0.00266
  42  C 3   py       0.00000   0.00000   0.00000   0.00000   0.00000   0.00000
  43  C 3   pz       0.00002  -0.00054  -0.00183   0.00375   0.00129   0.00000
  44  C 3   dxx      0.00029  -0.00679   0.00059  -0.00653   0.00019  -0.00026
  45  C 3   dxy      0.00000   0.00000   0.00000   0.00000   0.00000   0.00000
  46  C 3   dyy      0.00018  -0.00685   0.00057  -0.00655   0.00010  -0.00009
  47  C 3   dxz      0.00001   0.00002   0.00000   0.00010   0.00006  -0.00015
  48  C 3   dyz      0.00000   0.00000   0.00000   0.00000   0.00000   0.00000
  49  C 3   dzz      0.00025  -0.00703   0.00063  -0.00631   0.00018  -0.00019
  50  H 3   s        0.00001  -0.00028   0.00012  -0.00031  -0.00008   0.00001
  51  H 3   s        0.00011   0.00112   0.00068   0.00002  -0.00079   0.00045
  52  C 4   s       -0.02443   0.70392   0.07051  -0.69603  -0.00692  -0.00403
  53  C 4   s       -0.00135   0.03514   0.00384  -0.03547  -0.00095  -0.00042
  54  C 4   px      -0.00008   0.00019   0.00002  -0.00027  -0.00030  -0.00019
  55  C 4   py       0.00000   0.00000   0.00000   0.00000   0.00000   0.00000
  56  C 4   pz      -0.00001   0.00003   0.00009  -0.00045   0.00014   0.00002
  57  C 4   s        0.00006  -0.00735  -0.00731   0.01836   0.00971   0.00106
  58  C 4   px       0.00011  -0.00106  -0.00335   0.00477   0.00481   0.00044
  59  C 4   py       0.00000   0.00000   0.00000   0.00000   0.00000   0.00000
  60  C 4   pz      -0.00001   0.00051  -0.00184   0.00375   0.00113  -0.00061
  61  C 4   dxx      0.00029  -0.00683  -0.00058   0.00648  -0.00029  -0.00014
  62  C 4   dxy      0.00000   0.00000   0.00000   0.00000   0.00000   0.00000
  63  C 4   dyy      0.00018  -0.00689  -0.00057   0.00650  -0.00013  -0.00003
  64  C 4   dxz     -0.00001  -0.00002   0.00000   0.00010   0.00012   0.00010
  65  C 4   dyz      0.00000   0.00000   0.00000   0.00000   0.00000   0.00000
  66  C 4   dzz      0.00026  -0.00708  -0.00063   0.00625  -0.00025  -0.00008
  67  H 4   s        0.00001  -0.00028  -0.00012   0.00031   0.00007  -0.00003
  68  H 4   s        0.00012   0.00112  -0.00068  -0.00001   0.00091   0.00003
  69  C 5   s        0.00509   0.00550   0.00585  -0.00475   0.85175   0.51002
  70  C 5   s       -0.00012  -0.00013  -0.00033   0.00027   0.04281   0.02534
  71  C 5   px      -0.00020   0.00019  -0.00012  -0.00015   0.00000   0.00000
  72  C 5   py       0.00000   0.00000   0.00000   0.00000   0.00000   0.00000
  73  C 5   pz      -0.00018  -0.00020  -0.00014   0.00011   0.00052   0.00027
  74  C 5   s        0.00295   0.00322   0.01012  -0.00824  -0.01868  -0.00664
  75  C 5   px       0.00107  -0.00100   0.00086   0.00104   0.00000   0.00000
  76  C 5   py       0.00000   0.00000   0.00000   0.00000   0.00000   0.00000
  77  C 5   pz       0.00116   0.00128   0.00530  -0.00432  -0.00588  -0.00071
  78  C 5   dxx     -0.00027  -0.00030  -0.00040   0.00033  -0.00776  -0.00464
  79  C 5   dxy      0.00000   0.00000   0.00000   0.00000   0.00000   0.00000
  80  C 5   dyy     -0.00018  -0.00020  -0.00026   0.00021  -0.00813  -0.00498
  81  C 5   dxz     -0.00004   0.00004  -0.00006  -0.00007   0.00000   0.00000
  82  C 5   dyz      0.00000   0.00000   0.00000   0.00000   0.00000   0.00000
  83  C 5   dzz     -0.00018  -0.00019  -0.00026   0.00021  -0.00790  -0.00476
  84  H 5   s       -0.00002  -0.00002   0.00009  -0.00008  -0.00043  -0.00018
  85  H 5   s        0.00027   0.00029   0.00110  -0.00090   0.00022   0.00085
  86  C 6   s        0.69937   0.02422   0.70056   0.07093  -0.00691  -0.00403
  87  C 6   s        0.03492   0.00108   0.03575   0.00337  -0.00095  -0.00042
  88  C 6   px      -0.00019   0.00006  -0.00027  -0.00004   0.00030   0.00019
  89  C 6   py       0.00000   0.00000   0.00000   0.00000   0.00000   0.00000
  90  C 6   pz       0.00003  -0.00001   0.00046   0.00000   0.00014   0.00002
  91  C 6   s       -0.00721  -0.00048  -0.01950   0.00348   0.00971   0.00106
  92  C 6   px       0.00103  -0.00002   0.00535  -0.00232  -0.00481  -0.00044
  93  C 6   py       0.00000   0.00000   0.00000   0.00000   0.00000   0.00000
  94  C 6   pz       0.00054   0.00002  -0.00404   0.00105   0.00113  -0.00061
  95  C 6   dxx     -0.00679  -0.00018  -0.00651  -0.00074  -0.00029  -0.00014
  96  C 6   dxy      0.00000   0.00000   0.00000   0.00000   0.00000   0.00000
  97  C 6   dyy     -0.00685  -0.00030  -0.00652  -0.00075  -0.00013  -0.00003
  98  C 6   dxz      0.00002   0.00002   0.00010   0.00002  -0.00012  -0.00010
  99  C 6   dyz      0.00000   0.00000   0.00000   0.00000   0.00000   0.00000
 100  C 6   dzz     -0.00703  -0.00023  -0.00630  -0.00064  -0.00025  -0.00008
 101  H 6   s       -0.00028  -0.00001  -0.00033   0.00006   0.00007  -0.00003
 102  H 6   s        0.00111   0.00019  -0.00012   0.00067   0.00091   0.00003
                         7         8         9        10        11        12
 eigenvalues:         -1.089    -0.981    -0.980    -0.837    -0.827    -0.744
   1  C 1   s       -0.09029   0.00002  -0.12845  -0.00002  -0.10488  -0.01953
   2  C 1   s        0.17466  -0.00005   0.25491   0.00003   0.21591   0.04059
   3  C 1   px       0.00002  -0.11235  -0.00002  -0.20607   0.00003  -0.00001
   4  C 1   py       0.00000   0.00000   0.00000   0.00000   0.00000   0.00000
   5  C 1   pz      -0.06686   0.00000  -0.04029   0.00000   0.04488   0.19624
   6  C 1   s        0.09114  -0.00003   0.17337   0.00003   0.17698   0.07041
   7  C 1   px       0.00000  -0.01201   0.00000  -0.04294   0.00001   0.00000
   8  C 1   py       0.00000   0.00000   0.00000   0.00000   0.00000   0.00000
   9  C 1   pz       0.00115   0.00000   0.01040   0.00000   0.03809   0.06259
  10  C 1   dxx      0.00314   0.00000   0.00316   0.00000  -0.00598   0.00455
  11  C 1   dxy      0.00000   0.00000   0.00000   0.00000   0.00000   0.00000
  12  C 1   dyy     -0.01020   0.00000  -0.01279   0.00000  -0.00892  -0.00100
  13  C 1   dxz      0.00000   0.01102   0.00000   0.01068   0.00000   0.00000
  14  C 1   dyz      0.00000   0.00000   0.00000   0.00000   0.00000   0.00000
  15  C 1   dzz      0.00322   0.00000   0.00142   0.00000   0.00268  -0.00061
  16  H 1   s        0.02994  -0.00001   0.06612   0.00001   0.09863   0.10870
  17  H 1   s       -0.00264   0.00000   0.00238   0.00000   0.02071   0.04849
  18  C 2   s       -0.09494   0.11311  -0.06981   0.09240   0.04823  -0.00947
  19  C 2   s        0.18589  -0.22934   0.14108  -0.19597  -0.10228   0.02054
  20  C 2   px      -0.05478  -0.01138  -0.06562   0.00102  -0.13538   0.17184
  21  C 2   py       0.00000   0.00000   0.00000   0.00000   0.00000   0.00000
  22  C 2   pz      -0.03123   0.06090   0.08079  -0.11740   0.14354   0.11616
  23  C 2   s        0.12358  -0.17626   0.12067  -0.17402  -0.09238   0.03556
  24  C 2   px      -0.01277  -0.00805  -0.00954  -0.02603  -0.04680   0.07035
  25  C 2   py       0.00000   0.00000   0.00000   0.00000   0.00000   0.00000
  26  C 2   pz      -0.00743   0.00700   0.00629  -0.03674   0.02921   0.04241
  27  C 2   dxx      0.00263   0.00377   0.00783  -0.00335   0.00661   0.00165
  28  C 2   dxy      0.00000   0.00000   0.00000   0.00000   0.00000   0.00000
  29  C 2   dyy     -0.00886   0.00856  -0.00551   0.00552   0.00261   0.00011
  30  C 2   dxz     -0.00009  -0.00181  -0.00515  -0.00159  -0.00660  -0.00241
  31  C 2   dyz      0.00000   0.00000   0.00000   0.00000   0.00000   0.00000
  32  C 2   dzz      0.00272  -0.00594  -0.00720   0.00886  -0.00462   0.00194
  33  H 2   s        0.03421  -0.06420   0.03757  -0.09269  -0.05794   0.10535
  34  H 2   s        0.00279  -0.00491   0.00410  -0.01704  -0.01284   0.04252
  35  C 3   s       -0.09491  -0.11308  -0.06987  -0.09240   0.04824  -0.00948
  36  C 3   s        0.18583   0.22928   0.14120   0.19597  -0.10231   0.02056
  37  C 3   px       0.05478  -0.01139   0.06560   0.00105   0.13535  -0.17178
  38  C 3   py       0.00000   0.00000   0.00000   0.00000   0.00000   0.00000
  39  C 3   pz      -0.03122  -0.06094   0.08072   0.11740   0.14351   0.11610
  40  C 3   s        0.12353   0.17619   0.12076   0.17400  -0.09240   0.03558
  41  C 3   px       0.01277  -0.00805   0.00953  -0.02603   0.04679  -0.07032
  42  C 3   py       0.00000   0.00000   0.00000   0.00000   0.00000   0.00000
  43  C 3   pz      -0.00743  -0.00701   0.00629   0.03674   0.02920   0.04240
  44  C 3   dxx      0.00263  -0.00377   0.00783   0.00335   0.00661   0.00165
  45  C 3   dxy      0.00000   0.00000   0.00000   0.00000   0.00000   0.00000
  46  C 3   dyy     -0.00886  -0.00855  -0.00552  -0.00552   0.00261   0.00011
  47  C 3   dxz      0.00009  -0.00181   0.00515  -0.00158   0.00660   0.00241
  48  C 3   dyz      0.00000   0.00000   0.00000   0.00000   0.00000   0.00000
  49  C 3   dzz      0.00272   0.00594  -0.00720  -0.00886  -0.00462   0.00194
  50  H 3   s        0.03419   0.06418   0.03761   0.09267  -0.05794   0.10531
  51  H 3   s        0.00279   0.00491   0.00411   0.01703  -0.01285   0.04250
  52  C 4   s       -0.09491  -0.11313   0.06980   0.09240   0.04824  -0.00947
  53  C 4   s        0.18583   0.22937  -0.14104  -0.19597  -0.10231   0.02056
  54  C 4   px       0.05478  -0.01135  -0.06561  -0.00105   0.13535  -0.17179
  55  C 4   py       0.00000   0.00000   0.00000   0.00000   0.00000   0.00000
  56  C 4   pz       0.03121   0.06089   0.08077   0.11740  -0.14351  -0.11610
  57  C 4   s        0.12354   0.17628  -0.12064  -0.17400  -0.09240   0.03558
  58  C 4   px       0.01277  -0.00804  -0.00954   0.02603   0.04679  -0.07032
  59  C 4   py       0.00000   0.00000   0.00000   0.00000   0.00000   0.00000
  60  C 4   pz       0.00743   0.00701   0.00629   0.03674  -0.02920  -0.04239
  61  C 4   dxx      0.00263  -0.00377  -0.00783  -0.00335   0.00661   0.00165
  62  C 4   dxy      0.00000   0.00000   0.00000   0.00000   0.00000   0.00000
  63  C 4   dyy     -0.00886  -0.00856   0.00551   0.00552   0.00261   0.00011
  64  C 4   dxz     -0.00009   0.00181   0.00515  -0.00158  -0.00660  -0.00241
  65  C 4   dyz      0.00000   0.00000   0.00000   0.00000   0.00000   0.00000
  66  C 4   dzz      0.00272   0.00594   0.00720   0.00887  -0.00462   0.00194
  67  H 4   s        0.03419   0.06420  -0.03756  -0.09268  -0.05794   0.10531
  68  H 4   s        0.00279   0.00491  -0.00410  -0.01703  -0.01285   0.04250
  69  C 5   s       -0.09029  -0.00006   0.12845   0.00001  -0.10488  -0.01953
  70  C 5   s        0.17466   0.00012  -0.25491  -0.00003   0.21591   0.04059
  71  C 5   px       0.00002  -0.11235  -0.00005   0.20607   0.00003   0.00000
  72  C 5   py       0.00000   0.00000   0.00000   0.00000   0.00000   0.00000
  73  C 5   pz       0.06686   0.00002  -0.04029   0.00000  -0.04488  -0.19624
  74  C 5   s        0.09114   0.00008  -0.17337  -0.00003   0.17698   0.07041
  75  C 5   px       0.00000  -0.01201  -0.00001   0.04294   0.00001   0.00001
  76  C 5   py       0.00000   0.00000   0.00000   0.00000   0.00000   0.00000
  77  C 5   pz      -0.00115   0.00000   0.01040   0.00000  -0.03809  -0.06259
  78  C 5   dxx      0.00314   0.00000  -0.00316   0.00000  -0.00598   0.00455
  79  C 5   dxy      0.00000   0.00000   0.00000   0.00000   0.00000   0.00000
  80  C 5   dyy     -0.01020  -0.00001   0.01279   0.00000  -0.00892  -0.00100
  81  C 5   dxz      0.00000  -0.01102   0.00000   0.01068   0.00000   0.00000
  82  C 5   dyz      0.00000   0.00000   0.00000   0.00000   0.00000   0.00000
  83  C 5   dzz      0.00322   0.00000  -0.00142   0.00000   0.00268  -0.00061
  84  H 5   s        0.02994   0.00003  -0.06612  -0.00001   0.09863   0.10870
  85  H 5   s       -0.00264   0.00000  -0.00238   0.00000   0.02071   0.04849
  86  C 6   s       -0.09495   0.11306   0.06989  -0.09240   0.04823  -0.00947
  87  C 6   s        0.18589  -0.22925  -0.14123   0.19597  -0.10228   0.02055
  88  C 6   px      -0.05478  -0.01143   0.06561  -0.00103  -0.13538   0.17184
  89  C 6   py       0.00000   0.00000   0.00000   0.00000   0.00000   0.00000
  90  C 6   pz       0.03123  -0.06095   0.08075  -0.11740  -0.14354  -0.11616
  91  C 6   s        0.12358  -0.17618  -0.12078   0.17402  -0.09238   0.03557
  92  C 6   px      -0.01277  -0.00806   0.00953   0.02603  -0.04680   0.07035
  93  C 6   py       0.00000   0.00000   0.00000   0.00000   0.00000   0.00000
  94  C 6   pz       0.00743  -0.00701   0.00629  -0.03674  -0.02921  -0.04241
  95  C 6   dxx      0.00263   0.00377  -0.00783   0.00335   0.00661   0.00165
  96  C 6   dxy      0.00000   0.00000   0.00000   0.00000   0.00000   0.00000
  97  C 6   dyy     -0.00886   0.00855   0.00552  -0.00552   0.00261   0.00011
  98  C 6   dxz      0.00009   0.00181  -0.00515  -0.00158   0.00660   0.00241
  99  C 6   dyz      0.00000   0.00000   0.00000   0.00000   0.00000   0.00000
 100  C 6   dzz      0.00272  -0.00594   0.00720  -0.00886  -0.00462   0.00194
 101  H 6   s        0.03421  -0.06417  -0.03762   0.09268  -0.05794   0.10535
 102  H 6   s        0.00279  -0.00490  -0.00411   0.01703  -0.01285   0.04252
                        13        14        15        16        17        18
 eigenvalues:         -0.684    -0.678    -0.647    -0.644    -0.603    -0.575
   1  C 1   s        0.06617   0.00001  -0.00077   0.00000   0.00000   0.00001
   2  C 1   s       -0.13769  -0.00002  -0.00321   0.00000   0.00000  -0.00002
   3  C 1   px      -0.00004   0.27206  -0.00003  -0.08913   0.00000   0.25805
   4  C 1   py       0.00000   0.00000   0.00000   0.00000   0.20659   0.00000
   5  C 1   pz      -0.07536  -0.00003   0.32972  -0.00010   0.00000   0.00003
   6  C 1   s       -0.17709  -0.00003  -0.00165   0.00000   0.00000  -0.00003
   7  C 1   px      -0.00001   0.07700   0.00000   0.01152   0.00000   0.08681
   8  C 1   py       0.00000   0.00000   0.00000   0.00000   0.10274   0.00000
   9  C 1   pz      -0.02834  -0.00001   0.11313  -0.00004   0.00000   0.00002
  10  C 1   dxx      0.01453   0.00000  -0.00414   0.00000   0.00000   0.00000
  11  C 1   dxy      0.00000   0.00000   0.00000   0.00000   0.00000   0.00000
  12  C 1   dyy      0.00516   0.00000  -0.00065   0.00000   0.00000   0.00000
  13  C 1   dxz      0.00000  -0.00577   0.00000   0.01342   0.00000  -0.01260
  14  C 1   dyz      0.00000   0.00000   0.00000   0.00000  -0.01149   0.00000
  15  C 1   dzz     -0.01056   0.00000   0.01152   0.00000   0.00000   0.00000
  16  H 1   s       -0.10693  -0.00003   0.18924  -0.00005   0.00000   0.00001
  17  H 1   s       -0.05116  -0.00001   0.12610  -0.00003   0.00000   0.00001
  18  C 2   s       -0.05780  -0.00307   0.01927   0.01616   0.00000  -0.00098
  19  C 2   s        0.12194   0.00602  -0.04363  -0.04008   0.00000   0.01056
  20  C 2   px       0.15759  -0.13262   0.14948   0.22454   0.00000  -0.25184
  21  C 2   py       0.00000   0.00000   0.00000   0.00000   0.24133   0.00000
  22  C 2   pz       0.06245   0.24855   0.00943   0.16322   0.00000   0.01795
  23  C 2   s        0.17266   0.00585  -0.06293  -0.05648   0.00000  -0.02992
  24  C 2   px       0.05569  -0.04252   0.03774   0.09592   0.00000  -0.08629
  25  C 2   py       0.00000   0.00000   0.00000   0.00000   0.13508   0.00000
  26  C 2   pz       0.02237   0.08189   0.03872   0.04221   0.00000   0.01608
  27  C 2   dxx      0.00439   0.00334  -0.00576   0.01304   0.00000  -0.00856
  28  C 2   dxy      0.00000   0.00000   0.00000   0.00000  -0.00923   0.00000
  29  C 2   dyy     -0.00319  -0.00049   0.00065  -0.00014   0.00000   0.00098
  30  C 2   dxz      0.01534  -0.00223   0.00576   0.00279   0.00000  -0.01896
  31  C 2   dyz      0.00000   0.00000   0.00000   0.00000  -0.00674   0.00000
  32  C 2   dzz     -0.00815  -0.00452   0.01040  -0.00560   0.00000   0.00102
  33  H 2   s        0.14873   0.00396   0.05593   0.14263   0.00000  -0.14668
  34  H 2   s        0.07640   0.00189   0.03977   0.09753   0.00000  -0.12148
  35  C 3   s       -0.05781   0.00306   0.01926  -0.01617   0.00000   0.00098
  36  C 3   s        0.12196  -0.00601  -0.04361   0.04008   0.00000  -0.01055
  37  C 3   px      -0.15753  -0.13263  -0.14937   0.22463   0.00000  -0.25189
  38  C 3   py       0.00000   0.00000   0.00000   0.00000   0.24125   0.00000
  39  C 3   pz       0.06245  -0.24853   0.00938  -0.16320   0.00000  -0.01795
  40  C 3   s        0.17267  -0.00583  -0.06291   0.05647   0.00000   0.02994
  41  C 3   px      -0.05568  -0.04252  -0.03769   0.09595   0.00000  -0.08630
  42  C 3   py       0.00000   0.00000   0.00000   0.00000   0.13503   0.00000
  43  C 3   pz       0.02237  -0.08188   0.03871  -0.04221   0.00000  -0.01607
  44  C 3   dxx      0.00439  -0.00334  -0.00577  -0.01303   0.00000   0.00856
  45  C 3   dxy      0.00000   0.00000   0.00000   0.00000   0.00923   0.00000
  46  C 3   dyy     -0.00319   0.00049   0.00065   0.00014   0.00000  -0.00098
  47  C 3   dxz     -0.01534  -0.00224  -0.00575   0.00279   0.00000  -0.01896
  48  C 3   dyz      0.00000   0.00000   0.00000   0.00000  -0.00673   0.00000
  49  C 3   dzz     -0.00815   0.00452   0.01040   0.00559   0.00000  -0.00102
  50  H 3   s        0.14871  -0.00394   0.05586  -0.14266   0.00000   0.14671
  51  H 3   s        0.07638  -0.00188   0.03973  -0.09754   0.00000   0.12149
  52  C 4   s        0.05781   0.00306  -0.01927  -0.01616   0.00000  -0.00098
  53  C 4   s       -0.12196  -0.00601   0.04363   0.04007   0.00000   0.01055
  54  C 4   px       0.15754  -0.13263   0.14943   0.22458   0.00000   0.25189
  55  C 4   py       0.00000   0.00000   0.00000   0.00000   0.24126   0.00000
  56  C 4   pz       0.06246   0.24853   0.00943   0.16319   0.00000  -0.01793
  57  C 4   s       -0.17266  -0.00582   0.06292   0.05646   0.00000  -0.02994
  58  C 4   px       0.05568  -0.04252   0.03772   0.09594   0.00000   0.08630
  59  C 4   py       0.00000   0.00000   0.00000   0.00000   0.13503   0.00000
  60  C 4   pz       0.02238   0.08188   0.03872   0.04220   0.00000  -0.01606
  61  C 4   dxx     -0.00439  -0.00334   0.00576  -0.01303   0.00000  -0.00856
  62  C 4   dxy      0.00000   0.00000   0.00000   0.00000   0.00923   0.00000
  63  C 4   dyy      0.00319   0.00049  -0.00065   0.00014   0.00000   0.00098
  64  C 4   dxz     -0.01534   0.00224  -0.00575  -0.00278   0.00000  -0.01896
  65  C 4   dyz      0.00000   0.00000   0.00000   0.00000   0.00673   0.00000
  66  C 4   dzz      0.00815   0.00452  -0.01040   0.00559   0.00000   0.00102
  67  H 4   s       -0.14871  -0.00394  -0.05590  -0.14265   0.00000  -0.14672
  68  H 4   s       -0.07638  -0.00188  -0.03975  -0.09753   0.00000  -0.12150
  69  C 5   s       -0.06617   0.00001   0.00077   0.00000   0.00000  -0.00001
  70  C 5   s        0.13769  -0.00002   0.00320   0.00000   0.00000   0.00002
  71  C 5   px       0.00004   0.27206   0.00001  -0.08913   0.00000  -0.25805
  72  C 5   py       0.00000   0.00000   0.00000   0.00000   0.20660   0.00000
  73  C 5   pz      -0.07536   0.00003   0.32972   0.00001   0.00000   0.00002
  74  C 5   s        0.17709  -0.00003   0.00165  -0.00001   0.00000   0.00003
  75  C 5   px       0.00001   0.07700   0.00000   0.01152   0.00000  -0.08680
  76  C 5   py       0.00000   0.00000   0.00000   0.00000   0.10274   0.00000
  77  C 5   pz      -0.02834   0.00001   0.11313   0.00001   0.00000   0.00001
  78  C 5   dxx     -0.01453   0.00000   0.00414   0.00000   0.00000   0.00000
  79  C 5   dxy      0.00000   0.00000   0.00000   0.00000   0.00000   0.00000
  80  C 5   dyy     -0.00516   0.00000   0.00065   0.00000   0.00000   0.00000
  81  C 5   dxz      0.00000   0.00577   0.00000  -0.01342   0.00000  -0.01260
  82  C 5   dyz      0.00000   0.00000   0.00000   0.00000   0.01149   0.00000
  83  C 5   dzz      0.01056   0.00000  -0.01152   0.00000   0.00000   0.00000
  84  H 5   s        0.10693  -0.00003  -0.18925  -0.00001   0.00000   0.00000
  85  H 5   s        0.05117  -0.00002  -0.12610   0.00000   0.00000   0.00000
  86  C 6   s        0.05780  -0.00307  -0.01927   0.01617   0.00000   0.00098
  87  C 6   s       -0.12194   0.00603   0.04362  -0.04008   0.00000  -0.01056
  88  C 6   px      -0.15759  -0.13262  -0.14942   0.22458   0.00000   0.25184
  89  C 6   py       0.00000   0.00000   0.00000   0.00000   0.24133   0.00000
  90  C 6   pz       0.06244  -0.24855   0.00938  -0.16322   0.00000   0.01796
  91  C 6   s       -0.17266   0.00585   0.06291  -0.05649   0.00000   0.02992
  92  C 6   px      -0.05569  -0.04252  -0.03772   0.09593   0.00000   0.08629
  93  C 6   py       0.00000   0.00000   0.00000   0.00000   0.13508   0.00000
  94  C 6   pz       0.02236  -0.08189   0.03871  -0.04222   0.00000   0.01609
  95  C 6   dxx     -0.00439   0.00334   0.00577   0.01304   0.00000   0.00856
  96  C 6   dxy      0.00000   0.00000   0.00000   0.00000  -0.00923   0.00000
  97  C 6   dyy      0.00319  -0.00049  -0.00065  -0.00014   0.00000  -0.00098
  98  C 6   dxz      0.01534   0.00223   0.00576  -0.00279   0.00000  -0.01896
  99  C 6   dyz      0.00000   0.00000   0.00000   0.00000   0.00674   0.00000
 100  C 6   dzz      0.00815  -0.00452  -0.01040  -0.00559   0.00000  -0.00102
 101  H 6   s       -0.14872   0.00396  -0.05589   0.14266   0.00000   0.14667
 102  H 6   s       -0.07640   0.00189  -0.03975   0.09754   0.00000   0.12147
                        19        20        21        22        23        24
 eigenvalues:         -0.566    -0.498    -0.485    -0.261    -0.222    -0.100
   1  C 1   s       -0.00405   0.00000   0.00000   0.00000   0.00000   0.03344
   2  C 1   s        0.00119   0.00000   0.00000   0.00000   0.00000  -0.07505
   3  C 1   px       0.00001   0.00000   0.00000   0.00000   0.00000  -0.00001
   4  C 1   py       0.00000   0.00002   0.32381  -0.00004   0.38417   0.00000
   5  C 1   pz       0.24434   0.00000   0.00000   0.00000   0.00000  -0.10523
   6  C 1   s        0.04324   0.00000   0.00000   0.00000   0.00000  -0.41016
   7  C 1   px       0.00002   0.00000   0.00000   0.00000   0.00000   0.00002
   8  C 1   py       0.00000   0.00002   0.20770  -0.00004   0.47507   0.00001
   9  C 1   pz       0.08766   0.00000   0.00000   0.00000   0.00000  -0.24249
  10  C 1   dxx     -0.01511   0.00000   0.00000   0.00000   0.00000  -0.01678
  11  C 1   dxy      0.00000  -0.01813   0.00000   0.02913   0.00000   0.00000
  12  C 1   dyy     -0.00112   0.00000   0.00000   0.00000   0.00000  -0.00295
  13  C 1   dxz      0.00000   0.00000   0.00000   0.00000   0.00000   0.00000
  14  C 1   dyz      0.00000   0.00000  -0.00910   0.00000   0.00729   0.00000
  15  C 1   dzz      0.02281   0.00000   0.00000   0.00000   0.00000   0.02360
  16  H 1   s        0.17761   0.00000   0.00000   0.00000   0.00000   0.07435
  17  H 1   s        0.14528   0.00000   0.00000   0.00000   0.00000   0.62805
  18  C 2   s        0.00317   0.00000   0.00000   0.00000   0.00000   0.04064
  19  C 2   s       -0.00335   0.00000   0.00000   0.00000   0.00000  -0.08941
  20  C 2   px       0.01236   0.00000   0.00000   0.00000   0.00000  -0.10852
  21  C 2   py       0.00000  -0.30844   0.20002   0.34035  -0.17887   0.00000
  22  C 2   pz      -0.25054   0.00000   0.00000   0.00000   0.00000  -0.06234
  23  C 2   s       -0.01440   0.00001   0.00000   0.00000   0.00000  -0.51731
  24  C 2   px       0.00480   0.00000   0.00000   0.00000   0.00000  -0.25107
  25  C 2   py       0.00000  -0.20256   0.13318   0.36576  -0.22594   0.00000
  26  C 2   pz      -0.09317   0.00000   0.00000   0.00000   0.00000  -0.14685
  27  C 2   dxx     -0.01472   0.00000   0.00000   0.00000   0.00000   0.01564
  28  C 2   dxy      0.00000  -0.00020  -0.01157  -0.00017  -0.01953   0.00000
  29  C 2   dyy      0.00084   0.00000   0.00000   0.00000   0.00000  -0.00419
  30  C 2   dxz     -0.00463   0.00000   0.00000   0.00000   0.00000   0.02091
  31  C 2   dyz      0.00000   0.01256   0.01265   0.01575   0.02326   0.00000
  32  C 2   dzz      0.01205   0.00000   0.00000   0.00000   0.00000  -0.00659
  33  H 2   s       -0.08279   0.00000   0.00000   0.00000   0.00000   0.08457
  34  H 2   s       -0.06843   0.00000   0.00000   0.00000   0.00000   0.74056
  35  C 3   s        0.00317   0.00000   0.00000   0.00000   0.00000   0.04063
  36  C 3   s       -0.00334   0.00000   0.00000   0.00000   0.00000  -0.08939
  37  C 3   px      -0.01232   0.00000   0.00000   0.00000   0.00000   0.10844
  38  C 3   py       0.00000   0.30847   0.20002  -0.34032  -0.17889   0.00000
  39  C 3   pz      -0.25062   0.00000   0.00000   0.00000   0.00000  -0.06230
  40  C 3   s       -0.01437   0.00000   0.00000  -0.00001   0.00000  -0.51706
  41  C 3   px      -0.00478   0.00000   0.00000   0.00000   0.00000   0.25093
  42  C 3   py       0.00000   0.20257   0.13317  -0.36573  -0.22596  -0.00001
  43  C 3   pz      -0.09319   0.00000   0.00000   0.00000   0.00000  -0.14675
  44  C 3   dxx     -0.01472   0.00000   0.00000   0.00000   0.00000   0.01564
  45  C 3   dxy      0.00000  -0.00020   0.01157  -0.00017   0.01952   0.00000
  46  C 3   dyy      0.00084   0.00000   0.00000   0.00000   0.00000  -0.00419
  47  C 3   dxz      0.00463   0.00000   0.00000   0.00000   0.00000  -0.02091
  48  C 3   dyz      0.00000  -0.01257   0.01265  -0.01574   0.02326   0.00000
  49  C 3   dzz      0.01205   0.00000   0.00000   0.00000   0.00000  -0.00659
  50  H 3   s       -0.08283   0.00000   0.00000   0.00000   0.00000   0.08454
  51  H 3   s       -0.06846   0.00000   0.00000   0.00000   0.00000   0.74021
  52  C 4   s        0.00317   0.00000   0.00000   0.00000   0.00000   0.04063
  53  C 4   s       -0.00334   0.00000   0.00000   0.00000   0.00000  -0.08939
  54  C 4   px      -0.01234   0.00000   0.00000   0.00000   0.00000   0.10844
  55  C 4   py       0.00000   0.30849  -0.19998   0.34032  -0.17889   0.00000
  56  C 4   pz       0.25062   0.00000   0.00000   0.00000   0.00000   0.06230
  57  C 4   s       -0.01437  -0.00001   0.00000   0.00000   0.00000  -0.51708
  58  C 4   px      -0.00478   0.00000   0.00000   0.00000   0.00000   0.25093
  59  C 4   py       0.00000   0.20259  -0.13315   0.36573  -0.22596   0.00001
  60  C 4   pz       0.09319   0.00000   0.00000   0.00000   0.00000   0.14676
  61  C 4   dxx     -0.01472   0.00000   0.00000   0.00000   0.00000   0.01564
  62  C 4   dxy      0.00000  -0.00020  -0.01157   0.00017   0.01952   0.00000
  63  C 4   dyy      0.00084   0.00000   0.00000   0.00000   0.00000  -0.00419
  64  C 4   dxz     -0.00463   0.00000   0.00000   0.00000   0.00000   0.02091
  65  C 4   dyz      0.00000   0.01256   0.01265  -0.01575  -0.02326   0.00000
  66  C 4   dzz      0.01205   0.00000   0.00000   0.00000   0.00000  -0.00659
  67  H 4   s       -0.08282   0.00000   0.00000   0.00000   0.00000   0.08454
  68  H 4   s       -0.06845   0.00000   0.00000   0.00000   0.00000   0.74022
  69  C 5   s       -0.00405   0.00000   0.00000   0.00000   0.00000   0.03344
  70  C 5   s        0.00119   0.00000   0.00000   0.00000   0.00000  -0.07506
  71  C 5   px       0.00003   0.00000   0.00000   0.00000   0.00000  -0.00001
  72  C 5   py       0.00000   0.00005  -0.32381   0.00003   0.38418  -0.00001
  73  C 5   pz      -0.24434   0.00000   0.00000   0.00000   0.00000   0.10523
  74  C 5   s        0.04324   0.00000  -0.00001   0.00000   0.00000  -0.41015
  75  C 5   px       0.00002   0.00000   0.00000   0.00000   0.00000   0.00002
  76  C 5   py       0.00000   0.00003  -0.20770   0.00003   0.47507  -0.00001
  77  C 5   pz      -0.08766   0.00000   0.00000   0.00000   0.00000   0.24249
  78  C 5   dxx     -0.01511   0.00000   0.00000   0.00000   0.00000  -0.01678
  79  C 5   dxy      0.00000  -0.01813   0.00000  -0.02913   0.00000   0.00000
  80  C 5   dyy     -0.00112   0.00000   0.00000   0.00000   0.00000  -0.00295
  81  C 5   dxz      0.00000   0.00000   0.00000   0.00000   0.00000   0.00000
  82  C 5   dyz      0.00000   0.00000  -0.00910   0.00000  -0.00729   0.00000
  83  C 5   dzz      0.02281   0.00000   0.00000   0.00000   0.00000   0.02360
  84  H 5   s        0.17761   0.00000   0.00000   0.00000   0.00000   0.07435
  85  H 5   s        0.14528   0.00000   0.00000   0.00000   0.00000   0.62806
  86  C 6   s        0.00317   0.00000   0.00000   0.00000   0.00000   0.04064
  87  C 6   s       -0.00335   0.00000   0.00000   0.00000   0.00000  -0.08940
  88  C 6   px       0.01234   0.00000   0.00000   0.00000   0.00000  -0.10852
  89  C 6   py       0.00000  -0.30842  -0.20004  -0.34034  -0.17888   0.00000
  90  C 6   pz       0.25054   0.00000   0.00000   0.00000   0.00000   0.06234
  91  C 6   s       -0.01440   0.00000   0.00000   0.00000   0.00000  -0.51731
  92  C 6   px       0.00479   0.00000   0.00000   0.00000   0.00000  -0.25106
  93  C 6   py       0.00000  -0.20255  -0.13319  -0.36576  -0.22595   0.00001
  94  C 6   pz       0.09316   0.00000   0.00000   0.00000   0.00000   0.14685
  95  C 6   dxx     -0.01472   0.00000   0.00000   0.00000   0.00000   0.01564
  96  C 6   dxy      0.00000  -0.00020   0.01157   0.00017  -0.01953   0.00000
  97  C 6   dyy      0.00084   0.00000   0.00000   0.00000   0.00000  -0.00419
  98  C 6   dxz      0.00463   0.00000   0.00000   0.00000   0.00000  -0.02091
  99  C 6   dyz      0.00000  -0.01257   0.01265   0.01575  -0.02326   0.00000
 100  C 6   dzz      0.01205   0.00000   0.00000   0.00000   0.00000  -0.00659
 101  H 6   s       -0.08280   0.00000   0.00000   0.00000   0.00000   0.08457
 102  H 6   s       -0.06844   0.00000   0.00000   0.00000   0.00000   0.74055
                        25        26
 eigenvalues:         -0.083    -0.044
   1  C 1   s        0.00000   0.00001
   2  C 1   s        0.00000  -0.00002
   3  C 1   px       0.00000   0.03729
   4  C 1   py       0.32092   0.00000
   5  C 1   pz       0.00000   0.00001
   6  C 1   s        0.00000  -0.00007
   7  C 1   px       0.00000  -0.14145
   8  C 1   py       0.51461   0.00000
   9  C 1   pz       0.00001  -0.00001
  10  C 1   dxx      0.00000   0.00000
  11  C 1   dxy      0.00000   0.00000
  12  C 1   dyy      0.00000   0.00000
  13  C 1   dxz      0.00000   0.01355
  14  C 1   dyz      0.01494   0.00000
  15  C 1   dzz      0.00000   0.00000
  16  H 1   s        0.00000   0.00000
  17  H 1   s       -0.00001   0.00004
  18  C 2   s        0.00000  -0.03212
  19  C 2   s        0.00000   0.04409
  20  C 2   px       0.00000   0.20859
  21  C 2   py      -0.30257   0.00000
  22  C 2   pz       0.00000   0.09148
  23  C 2   s        0.00000   0.73100
  24  C 2   px       0.00000   0.39983
  25  C 2   py      -0.45751   0.00000
  26  C 2   pz       0.00001   0.29424
  27  C 2   dxx      0.00000  -0.00253
  28  C 2   dxy     -0.01619   0.00000
  29  C 2   dyy      0.00000   0.00016
  30  C 2   dxz      0.00000  -0.01667
  31  C 2   dyz     -0.00478   0.00000
  32  C 2   dzz      0.00000   0.00038
  33  H 2   s        0.00000  -0.06553
  34  H 2   s        0.00000  -1.01486
  35  C 3   s        0.00000   0.03211
  36  C 3   s        0.00000  -0.04410
  37  C 3   px       0.00000   0.20857
  38  C 3   py      -0.30261   0.00000
  39  C 3   pz       0.00000  -0.09142
  40  C 3   s        0.00000  -0.73087
  41  C 3   px       0.00000   0.39976
  42  C 3   py      -0.45756   0.00000
  43  C 3   pz       0.00001  -0.29416
  44  C 3   dxx      0.00000   0.00253
  45  C 3   dxy      0.01618   0.00000
  46  C 3   dyy      0.00000  -0.00017
  47  C 3   dxz      0.00000  -0.01668
  48  C 3   dyz     -0.00478   0.00000
  49  C 3   dzz      0.00000  -0.00038
  50  H 3   s        0.00000   0.06553
  51  H 3   s        0.00000   1.01471
  52  C 4   s        0.00000   0.03212
  53  C 4   s        0.00001  -0.04411
  54  C 4   px       0.00000   0.20861
  55  C 4   py       0.30260   0.00000
  56  C 4   pz       0.00000   0.09147
  57  C 4   s        0.00002  -0.73104
  58  C 4   px      -0.00001   0.39991
  59  C 4   py       0.45755   0.00000
  60  C 4   pz       0.00000   0.29422
  61  C 4   dxx      0.00000   0.00254
  62  C 4   dxy     -0.01618   0.00000
  63  C 4   dyy      0.00000  -0.00017
  64  C 4   dxz      0.00000   0.01668
  65  C 4   dyz     -0.00478   0.00000
  66  C 4   dzz      0.00000  -0.00038
  67  H 4   s        0.00000   0.06555
  68  H 4   s       -0.00003   1.01500
  69  C 5   s        0.00000   0.00002
  70  C 5   s        0.00000  -0.00004
  71  C 5   px       0.00000   0.03729
  72  C 5   py      -0.32091   0.00000
  73  C 5   pz       0.00000   0.00009
  74  C 5   s        0.00001  -0.00039
  75  C 5   px       0.00000  -0.14146
  76  C 5   py      -0.51460   0.00000
  77  C 5   pz       0.00000   0.00020
  78  C 5   dxx      0.00000  -0.00001
  79  C 5   dxy      0.00000   0.00000
  80  C 5   dyy      0.00000   0.00000
  81  C 5   dxz      0.00000  -0.01355
  82  C 5   dyz      0.01494   0.00000
  83  C 5   dzz      0.00000   0.00001
  84  H 5   s        0.00000   0.00003
  85  H 5   s       -0.00001   0.00047
  86  C 6   s        0.00000  -0.03211
  87  C 6   s        0.00000   0.04408
  88  C 6   px       0.00000   0.20855
  89  C 6   py       0.30257   0.00000
  90  C 6   pz       0.00000  -0.09142
  91  C 6   s        0.00001   0.73083
  92  C 6   px       0.00001   0.39968
  93  C 6   py       0.45750   0.00000
  94  C 6   pz       0.00000  -0.29419
  95  C 6   dxx      0.00000  -0.00253
  96  C 6   dxy      0.01619   0.00000
  97  C 6   dyy      0.00000   0.00016
  98  C 6   dxz      0.00000   0.01667
  99  C 6   dyz     -0.00478   0.00000
 100  C 6   dzz      0.00000   0.00037
 101  H 6   s        0.00000  -0.06551
 102  H 6   s       -0.00001  -1.01456
 

                        BETA  MOLECULAR ORBITAL COEFFICIENTS
                         1         2         3         4         5         6
 eigenvalues:        -10.445   -10.445   -10.445   -10.445   -10.414   -10.414
   1  C 1   s        0.00666   0.00594  -0.00702   0.00560   0.83156   0.54217
   2  C 1   s       -0.00008  -0.00007   0.00025  -0.00020   0.04211   0.02716
   3  C 1   px      -0.00021   0.00024   0.00015   0.00020   0.00000   0.00000
   4  C 1   py       0.00000   0.00000   0.00000   0.00000   0.00000   0.00000
   5  C 1   pz       0.00022   0.00020  -0.00017   0.00013  -0.00051  -0.00029
   6  C 1   s        0.00322   0.00283  -0.00983   0.00780  -0.01853  -0.00737
   7  C 1   px       0.00092  -0.00102  -0.00081  -0.00103   0.00000   0.00000
   8  C 1   py       0.00000   0.00000   0.00000   0.00000   0.00000   0.00000
   9  C 1   pz      -0.00127  -0.00111   0.00510  -0.00404   0.00593   0.00095
  10  C 1   dxx     -0.00035  -0.00031   0.00047  -0.00037  -0.00771  -0.00501
  11  C 1   dxy      0.00000   0.00000   0.00000   0.00000   0.00000   0.00000
  12  C 1   dyy     -0.00020  -0.00018   0.00026  -0.00021  -0.00796  -0.00531
  13  C 1   dxz      0.00005  -0.00006  -0.00008  -0.00010   0.00000   0.00000
  14  C 1   dyz      0.00000   0.00000   0.00000   0.00000   0.00000   0.00000
  15  C 1   dzz     -0.00022  -0.00020   0.00030  -0.00024  -0.00785  -0.00514
  16  H 1   s       -0.00001  -0.00001  -0.00009   0.00007  -0.00041  -0.00018
  17  H 1   s        0.00029   0.00025  -0.00104   0.00083   0.00016   0.00084
  18  C 2   s        0.70350  -0.03821  -0.69491  -0.08101  -0.00795  -0.00506
  19  C 2   s        0.03429  -0.00200  -0.03460  -0.00380  -0.00099  -0.00048
  20  C 2   px      -0.00020   0.00007   0.00028   0.00004   0.00028   0.00019
  21  C 2   py       0.00000   0.00000   0.00000   0.00000   0.00000   0.00000
  22  C 2   pz       0.00001   0.00001   0.00048   0.00002  -0.00013  -0.00002
  23  C 2   s       -0.00726   0.00018   0.01894  -0.00301   0.00976   0.00144
  24  C 2   px       0.00101  -0.00012  -0.00509   0.00215  -0.00484  -0.00063
  25  C 2   py       0.00000   0.00000   0.00000   0.00000   0.00000   0.00000
  26  C 2   pz      -0.00048   0.00000  -0.00384   0.00094  -0.00117   0.00057
  27  C 2   dxx     -0.00644   0.00041   0.00607   0.00079  -0.00027  -0.00014
  28  C 2   dxy      0.00000   0.00000   0.00000   0.00000   0.00000   0.00000
  29  C 2   dyy     -0.00686   0.00032   0.00644   0.00084  -0.00013  -0.00003
  30  C 2   dxz     -0.00003  -0.00001   0.00011   0.00002   0.00011   0.00010
  31  C 2   dyz      0.00000   0.00000   0.00000   0.00000   0.00000   0.00000
  32  C 2   dzz     -0.00672   0.00038   0.00580   0.00069  -0.00023  -0.00008
  33  H 2   s       -0.00032   0.00002   0.00036  -0.00005   0.00008  -0.00003
  34  H 2   s        0.00113   0.00009   0.00003  -0.00065   0.00092   0.00006
  35  C 3   s        0.03785   0.69891  -0.08160   0.69948  -0.00797  -0.00507
  36  C 3   s        0.00171   0.03408  -0.00429   0.03477  -0.00099  -0.00049
  37  C 3   px      -0.00005   0.00020  -0.00003   0.00028  -0.00028  -0.00019
  38  C 3   py       0.00000   0.00000   0.00000   0.00000   0.00000   0.00000
  39  C 3   pz       0.00001   0.00001   0.00009  -0.00047  -0.00013  -0.00002
  40  C 3   s       -0.00064  -0.00712   0.00729  -0.01779   0.00976   0.00144
  41  C 3   px      -0.00001  -0.00099   0.00327  -0.00447   0.00484   0.00063
  42  C 3   py       0.00000   0.00000   0.00000   0.00000   0.00000   0.00000
  43  C 3   pz      -0.00004  -0.00050  -0.00180   0.00352  -0.00118   0.00057
  44  C 3   dxx     -0.00029  -0.00641   0.00063  -0.00613  -0.00027  -0.00014
  45  C 3   dxy      0.00000   0.00000   0.00000   0.00000   0.00000   0.00000
  46  C 3   dyy     -0.00042  -0.00681   0.00067  -0.00651  -0.00013  -0.00003
  47  C 3   dxz      0.00002   0.00003  -0.00001   0.00011  -0.00011  -0.00010
  48  C 3   dyz      0.00000   0.00000   0.00000   0.00000   0.00000   0.00000
  49  C 3   dzz     -0.00035  -0.00668   0.00067  -0.00585  -0.00023  -0.00008
  50  H 3   s       -0.00001  -0.00031   0.00013  -0.00034   0.00008  -0.00003
  51  H 3   s        0.00021   0.00111   0.00064   0.00013   0.00092   0.00006
  52  C 4   s        0.03794   0.70292   0.08098  -0.69552   0.00524  -0.00786
  53  C 4   s        0.00171   0.03428   0.00425  -0.03458   0.00071  -0.00084
  54  C 4   px      -0.00005   0.00020   0.00003  -0.00028   0.00018  -0.00029
  55  C 4   py       0.00000   0.00000   0.00000   0.00000   0.00000   0.00000
  56  C 4   pz      -0.00001  -0.00001   0.00009  -0.00047  -0.00011   0.00007
  57  C 4   s       -0.00060  -0.00722  -0.00729   0.01775  -0.00836   0.00525
  58  C 4   px       0.00001  -0.00102  -0.00327   0.00446  -0.00418   0.00253
  59  C 4   py       0.00000   0.00000   0.00000   0.00000   0.00000   0.00000
  60  C 4   pz       0.00005   0.00048  -0.00180   0.00353  -0.00130  -0.00004
  61  C 4   dxx     -0.00029  -0.00645  -0.00063   0.00609   0.00019  -0.00023
  62  C 4   dxy      0.00000   0.00000   0.00000   0.00000   0.00000   0.00000
  63  C 4   dyy     -0.00043  -0.00685  -0.00066   0.00647   0.00010  -0.00008
  64  C 4   dxz     -0.00002  -0.00003  -0.00001   0.00011  -0.00006   0.00014
  65  C 4   dyz      0.00000   0.00000   0.00000   0.00000   0.00000   0.00000
  66  C 4   dzz     -0.00035  -0.00671  -0.00066   0.00581   0.00018  -0.00017
  67  H 4   s       -0.00001  -0.00032  -0.00013   0.00034  -0.00008   0.00000
  68  H 4   s        0.00021   0.00111  -0.00064  -0.00012  -0.00081   0.00043
  69  C 5   s        0.00661   0.00598   0.00706  -0.00556  -0.54225   0.83151
  70  C 5   s       -0.00008  -0.00007  -0.00025   0.00020  -0.02758   0.04183
  71  C 5   px      -0.00021   0.00024  -0.00016  -0.00020   0.00000   0.00000
  72  C 5   py       0.00000   0.00000   0.00000   0.00000   0.00000   0.00000
  73  C 5   pz      -0.00022  -0.00020  -0.00017   0.00013  -0.00035   0.00047
  74  C 5   s        0.00316   0.00289   0.00985  -0.00778   0.01399  -0.01422
  75  C 5   px       0.00092  -0.00103   0.00082   0.00102   0.00000   0.00000
  76  C 5   py       0.00000   0.00000   0.00000   0.00000   0.00000   0.00000
  77  C 5   pz       0.00124   0.00114   0.00511  -0.00403   0.00504  -0.00326
  78  C 5   dxx     -0.00034  -0.00031  -0.00047   0.00037   0.00503  -0.00769
  79  C 5   dxy      0.00000   0.00000   0.00000   0.00000   0.00000   0.00000
  80  C 5   dyy     -0.00020  -0.00018  -0.00026   0.00020   0.00514  -0.00807
  81  C 5   dxz     -0.00005   0.00006  -0.00008  -0.00010   0.00000   0.00000
  82  C 5   dyz      0.00000   0.00000   0.00000   0.00000   0.00000   0.00000
  83  C 5   dzz     -0.00022  -0.00020  -0.00030   0.00024   0.00510  -0.00787
  84  H 5   s       -0.00001  -0.00001   0.00009  -0.00007   0.00030  -0.00033
  85  H 5   s        0.00028   0.00026   0.00105  -0.00083   0.00019   0.00084
  86  C 6   s        0.69832  -0.03777   0.70009   0.08148   0.00523  -0.00784
  87  C 6   s        0.03403  -0.00198   0.03485   0.00383   0.00071  -0.00084
  88  C 6   px      -0.00020   0.00007  -0.00028  -0.00004  -0.00018   0.00029
  89  C 6   py       0.00000   0.00000   0.00000   0.00000   0.00000   0.00000
  90  C 6   pz      -0.00001  -0.00001   0.00048   0.00002  -0.00011   0.00007
  91  C 6   s       -0.00713   0.00014  -0.01900   0.00301  -0.00836   0.00525
  92  C 6   px       0.00098  -0.00010   0.00510  -0.00215   0.00418  -0.00253
  93  C 6   py       0.00000   0.00000   0.00000   0.00000   0.00000   0.00000
  94  C 6   pz       0.00051  -0.00001  -0.00384   0.00094  -0.00130  -0.00004
  95  C 6   dxx     -0.00640   0.00041  -0.00611  -0.00080   0.00019  -0.00023
  96  C 6   dxy      0.00000   0.00000   0.00000   0.00000   0.00000   0.00000
  97  C 6   dyy     -0.00681   0.00031  -0.00649  -0.00085   0.00010  -0.00008
  98  C 6   dxz      0.00003   0.00001   0.00011   0.00002   0.00006  -0.00014
  99  C 6   dyz      0.00000   0.00000   0.00000   0.00000   0.00000   0.00000
 100  C 6   dzz     -0.00667   0.00037  -0.00585  -0.00070   0.00018  -0.00017
 101  H 6   s       -0.00031   0.00002  -0.00036   0.00005  -0.00008   0.00000
 102  H 6   s        0.00113   0.00009  -0.00002   0.00065  -0.00081   0.00043
                         7         8         9        10        11        12
 eigenvalues:         -1.078    -0.977    -0.962    -0.828    -0.822    -0.741
   1  C 1   s       -0.09487   0.13070  -0.00002  -0.00001  -0.10217   0.01770
   2  C 1   s        0.18307  -0.25974   0.00005   0.00003   0.21320  -0.03676
   3  C 1   px       0.00002  -0.00002  -0.11767  -0.21116   0.00003   0.00001
   4  C 1   py       0.00000   0.00000   0.00000   0.00000   0.00000   0.00000
   5  C 1   pz      -0.06734   0.03929  -0.00001   0.00000   0.05322  -0.19913
   6  C 1   s        0.11135  -0.19304   0.00003   0.00003   0.16869  -0.06643
   7  C 1   px       0.00000   0.00000  -0.01812  -0.04847   0.00001   0.00000
   8  C 1   py       0.00000   0.00000   0.00000   0.00000   0.00000   0.00000
   9  C 1   pz      -0.00728  -0.00317   0.00000   0.00000   0.04874  -0.06725
  10  C 1   dxx      0.00233  -0.00254   0.00000   0.00000  -0.00592  -0.00443
  11  C 1   dxy      0.00000   0.00000   0.00000   0.00000   0.00000   0.00000
  12  C 1   dyy     -0.01021   0.01206   0.00000   0.00000  -0.00735   0.00062
  13  C 1   dxz      0.00000   0.00000   0.01094   0.01063   0.00000   0.00000
  14  C 1   dyz      0.00000   0.00000   0.00000   0.00000   0.00000   0.00000
  15  C 1   dzz      0.00302  -0.00123   0.00000   0.00000   0.00248   0.00085
  16  H 1   s        0.03252  -0.06793   0.00001   0.00001   0.10062  -0.10832
  17  H 1   s        0.00050  -0.00447   0.00000   0.00000   0.01868  -0.04709
  18  C 2   s       -0.09247   0.06761   0.11216   0.09082   0.05090   0.01005
  19  C 2   s        0.18087  -0.13622  -0.22886  -0.19205  -0.10857  -0.02177
  20  C 2   px      -0.05789   0.06651  -0.01138   0.00161  -0.12910  -0.17257
  21  C 2   py       0.00000   0.00000   0.00000   0.00000   0.00000   0.00000
  22  C 2   pz      -0.02759  -0.07966   0.05873  -0.11831   0.14404  -0.11037
  23  C 2   s        0.11134  -0.10173  -0.16765  -0.15923  -0.08913  -0.03585
  24  C 2   px      -0.01027   0.00361  -0.01122  -0.02826  -0.04718  -0.06851
  25  C 2   py       0.00000   0.00000   0.00000   0.00000   0.00000   0.00000
  26  C 2   pz      -0.00662  -0.00930   0.00644  -0.03934   0.02829  -0.03955
  27  C 2   dxx      0.00462  -0.00878   0.00101  -0.00491   0.00494  -0.00163
  28  C 2   dxy      0.00000   0.00000   0.00000   0.00000   0.00000   0.00000
  29  C 2   dyy     -0.01225   0.00755   0.01295   0.00856   0.00535   0.00025
  30  C 2   dxz     -0.00023   0.00531  -0.00194  -0.00154  -0.00677   0.00231
  31  C 2   dyz      0.00000   0.00000   0.00000   0.00000   0.00000   0.00000
  32  C 2   dzz      0.00411   0.00581  -0.00805   0.00691  -0.00573  -0.00239
  33  H 2   s        0.03372  -0.03652  -0.06741  -0.09474  -0.05977  -0.10733
  34  H 2   s        0.00383  -0.00314  -0.00764  -0.01952  -0.01505  -0.04547
  35  C 3   s       -0.09244   0.06759  -0.11218  -0.09082   0.05091   0.01005
  36  C 3   s        0.18080  -0.13617   0.22889   0.19205  -0.10860  -0.02179
  37  C 3   px       0.05789  -0.06651  -0.01134   0.00163   0.12907   0.17251
  38  C 3   py       0.00000   0.00000   0.00000   0.00000   0.00000   0.00000
  39  C 3   pz      -0.02757  -0.07965  -0.05871   0.11830   0.14401  -0.11032
  40  C 3   s        0.11130  -0.10170   0.16767   0.15922  -0.08915  -0.03588
  41  C 3   px       0.01027  -0.00361  -0.01121  -0.02825   0.04717   0.06848
  42  C 3   py       0.00000   0.00000   0.00000   0.00000   0.00000   0.00000
  43  C 3   pz      -0.00661  -0.00930  -0.00644   0.03933   0.02828  -0.03954
  44  C 3   dxx      0.00462  -0.00878  -0.00101   0.00492   0.00494  -0.00163
  45  C 3   dxy      0.00000   0.00000   0.00000   0.00000   0.00000   0.00000
  46  C 3   dyy     -0.01225   0.00755  -0.01295  -0.00856   0.00535   0.00025
  47  C 3   dxz      0.00023  -0.00531  -0.00194  -0.00154   0.00677  -0.00231
  48  C 3   dyz      0.00000   0.00000   0.00000   0.00000   0.00000   0.00000
  49  C 3   dzz      0.00410   0.00580   0.00805  -0.00691  -0.00574  -0.00240
  50  H 3   s        0.03370  -0.03651   0.06742   0.09473  -0.05978  -0.10730
  51  H 3   s        0.00383  -0.00314   0.00764   0.01952  -0.01505  -0.04546
  52  C 4   s       -0.09244  -0.06760  -0.11218   0.09082   0.05092   0.01005
  53  C 4   s        0.18080   0.13619   0.22888  -0.19205  -0.10861  -0.02178
  54  C 4   px       0.05789   0.06651  -0.01134  -0.00164   0.12907   0.17251
  55  C 4   py       0.00000   0.00000   0.00000   0.00000   0.00000   0.00000
  56  C 4   pz       0.02757  -0.07965   0.05872   0.11831  -0.14401   0.11032
  57  C 4   s        0.11129   0.10171   0.16766  -0.15922  -0.08916  -0.03587
  58  C 4   px       0.01027   0.00361  -0.01121   0.02825   0.04717   0.06849
  59  C 4   py       0.00000   0.00000   0.00000   0.00000   0.00000   0.00000
  60  C 4   pz       0.00661  -0.00930   0.00644   0.03933  -0.02828   0.03954
  61  C 4   dxx      0.00462   0.00878  -0.00101  -0.00492   0.00494  -0.00163
  62  C 4   dxy      0.00000   0.00000   0.00000   0.00000   0.00000   0.00000
  63  C 4   dyy     -0.01225  -0.00755  -0.01295   0.00856   0.00535   0.00025
  64  C 4   dxz     -0.00023  -0.00531   0.00194  -0.00154  -0.00677   0.00231
  65  C 4   dyz      0.00000   0.00000   0.00000   0.00000   0.00000   0.00000
  66  C 4   dzz      0.00410  -0.00580   0.00805   0.00691  -0.00574  -0.00240
  67  H 4   s        0.03370   0.03651   0.06741  -0.09473  -0.05978  -0.10730
  68  H 4   s        0.00383   0.00314   0.00764  -0.01952  -0.01505  -0.04546
  69  C 5   s       -0.09486  -0.13070  -0.00002   0.00002  -0.10217   0.01770
  70  C 5   s        0.18307   0.25974   0.00003  -0.00003   0.21320  -0.03676
  71  C 5   px       0.00002   0.00001  -0.11767   0.21116   0.00004   0.00001
  72  C 5   py       0.00000   0.00000   0.00000   0.00000   0.00000   0.00000
  73  C 5   pz       0.06734   0.03929   0.00001   0.00000  -0.05322   0.19913
  74  C 5   s        0.11135   0.19304   0.00003  -0.00003   0.16869  -0.06644
  75  C 5   px       0.00000   0.00000  -0.01812   0.04847   0.00001  -0.00001
  76  C 5   py       0.00000   0.00000   0.00000   0.00000   0.00000   0.00000
  77  C 5   pz       0.00728  -0.00317   0.00000   0.00000  -0.04874   0.06725
  78  C 5   dxx      0.00233   0.00254   0.00000   0.00000  -0.00592  -0.00443
  79  C 5   dxy      0.00000   0.00000   0.00000   0.00000   0.00000   0.00000
  80  C 5   dyy     -0.01021  -0.01206   0.00000   0.00000  -0.00735   0.00062
  81  C 5   dxz      0.00000   0.00000  -0.01094   0.01063   0.00000   0.00000
  82  C 5   dyz      0.00000   0.00000   0.00000   0.00000   0.00000   0.00000
  83  C 5   dzz      0.00302   0.00124   0.00000   0.00000   0.00248   0.00085
  84  H 5   s        0.03252   0.06793   0.00001  -0.00001   0.10062  -0.10832
  85  H 5   s        0.00050   0.00447   0.00000   0.00000   0.01868  -0.04709
  86  C 6   s       -0.09247  -0.06761   0.11217  -0.09082   0.05090   0.01005
  87  C 6   s        0.18087   0.13621  -0.22887   0.19205  -0.10856  -0.02177
  88  C 6   px      -0.05789  -0.06651  -0.01138  -0.00161  -0.12910  -0.17257
  89  C 6   py       0.00000   0.00000   0.00000   0.00000   0.00000   0.00000
  90  C 6   pz       0.02759  -0.07967  -0.05873  -0.11830  -0.14404   0.11037
  91  C 6   s        0.11134   0.10172  -0.16765   0.15923  -0.08912  -0.03585
  92  C 6   px      -0.01027  -0.00361  -0.01122   0.02826  -0.04718  -0.06851
  93  C 6   py       0.00000   0.00000   0.00000   0.00000   0.00000   0.00000
  94  C 6   pz       0.00662  -0.00930  -0.00644  -0.03933  -0.02829   0.03955
  95  C 6   dxx      0.00462   0.00878   0.00101   0.00491   0.00494  -0.00163
  96  C 6   dxy      0.00000   0.00000   0.00000   0.00000   0.00000   0.00000
  97  C 6   dyy     -0.01225  -0.00755   0.01295  -0.00856   0.00535   0.00025
  98  C 6   dxz      0.00023   0.00531   0.00194  -0.00154   0.00677  -0.00231
  99  C 6   dyz      0.00000   0.00000   0.00000   0.00000   0.00000   0.00000
 100  C 6   dzz      0.00411  -0.00581  -0.00805  -0.00691  -0.00573  -0.00239
 101  H 6   s        0.03372   0.03652  -0.06742   0.09474  -0.05977  -0.10733
 102  H 6   s        0.00383   0.00314  -0.00764   0.01952  -0.01505  -0.04547
                        13        14        15        16        17        18
 eigenvalues:         -0.680    -0.673    -0.647    -0.639    -0.573    -0.571
   1  C 1   s        0.06354   0.00001   0.00073   0.00000   0.00001   0.00000
   2  C 1   s       -0.13314  -0.00002  -0.00687   0.00000  -0.00002   0.00000
   3  C 1   px      -0.00004   0.27728  -0.00002  -0.08248   0.26040  -0.00005
   4  C 1   py       0.00000   0.00000   0.00000   0.00000   0.00005   0.24311
   5  C 1   pz      -0.07996  -0.00003   0.33140  -0.00006   0.00002   0.00000
   6  C 1   s       -0.16916  -0.00003  -0.00983   0.00000  -0.00003   0.00000
   7  C 1   px      -0.00001   0.07994   0.00000   0.01474   0.08976  -0.00002
   8  C 1   py       0.00000   0.00000   0.00000   0.00000   0.00003   0.13991
   9  C 1   pz      -0.03399  -0.00001   0.11774  -0.00002   0.00001   0.00000
  10  C 1   dxx      0.01478   0.00000  -0.00414   0.00000   0.00000   0.00000
  11  C 1   dxy      0.00000   0.00000   0.00000   0.00000   0.00000   0.00000
  12  C 1   dyy      0.00425   0.00000  -0.00046   0.00000   0.00000   0.00000
  13  C 1   dxz      0.00000  -0.00625   0.00000   0.01355  -0.01279   0.00000
  14  C 1   dyz      0.00000   0.00000   0.00000   0.00000   0.00000  -0.01225
  15  C 1   dzz     -0.01044   0.00000   0.01109   0.00000   0.00000   0.00000
  16  H 1   s       -0.10714  -0.00003   0.18763  -0.00004   0.00000   0.00000
  17  H 1   s       -0.05069  -0.00002   0.12376  -0.00002   0.00000   0.00000
  18  C 2   s       -0.05804  -0.00217   0.01875   0.01742  -0.00087   0.00000
  19  C 2   s        0.12235   0.00286  -0.04201  -0.04355   0.01004   0.00000
  20  C 2   px       0.15314  -0.13915   0.14929   0.21775  -0.24887   0.00005
  21  C 2   py       0.00000   0.00000   0.00000   0.00000   0.00004   0.21468
  22  C 2   pz       0.06459   0.24245   0.00917   0.17313   0.01748   0.00000
  23  C 2   s        0.15976   0.00396  -0.05676  -0.06066  -0.02942   0.00001
  24  C 2   px       0.05521  -0.04522   0.03398   0.09001  -0.08010   0.00002
  25  C 2   py       0.00000   0.00000   0.00000   0.00000   0.00002   0.12253
  26  C 2   pz       0.02707   0.07835   0.03682   0.04283   0.01559   0.00000
  27  C 2   dxx      0.00577   0.00236  -0.00597   0.01248  -0.00864   0.00000
  28  C 2   dxy      0.00000   0.00000   0.00000   0.00000   0.00000  -0.01072
  29  C 2   dyy     -0.00542   0.00010   0.00129   0.00085   0.00115   0.00000
  30  C 2   dxz      0.01521  -0.00242   0.00589   0.00266  -0.01895   0.00000
  31  C 2   dyz      0.00000   0.00000   0.00000   0.00000   0.00000  -0.00395
  32  C 2   dzz     -0.00703  -0.00452   0.01005  -0.00626   0.00099   0.00000
  33  H 2   s        0.15179  -0.00223   0.05746   0.14417  -0.14883   0.00003
  34  H 2   s        0.08036  -0.00211   0.04210   0.10264  -0.12639   0.00002
  35  C 3   s       -0.05805   0.00216   0.01875  -0.01742   0.00086   0.00000
  36  C 3   s        0.12237  -0.00284  -0.04201   0.04354  -0.01002   0.00000
  37  C 3   px      -0.15309  -0.13916  -0.14923   0.21780  -0.24892   0.00005
  38  C 3   py       0.00000   0.00000   0.00000   0.00000   0.00004   0.21463
  39  C 3   pz       0.06461  -0.24242   0.00916  -0.17310  -0.01746   0.00000
  40  C 3   s        0.15976  -0.00394  -0.05675   0.06065   0.02945  -0.00001
  41  C 3   px      -0.05520  -0.04522  -0.03396   0.09003  -0.08011   0.00001
  42  C 3   py       0.00000   0.00000   0.00000   0.00000   0.00002   0.12251
  43  C 3   pz       0.02708  -0.07833   0.03682  -0.04282  -0.01557   0.00000
  44  C 3   dxx      0.00577  -0.00236  -0.00598  -0.01248   0.00864   0.00000
  45  C 3   dxy      0.00000   0.00000   0.00000   0.00000   0.00000   0.01072
  46  C 3   dyy     -0.00542  -0.00010   0.00129  -0.00085  -0.00115   0.00000
  47  C 3   dxz     -0.01520  -0.00243  -0.00589   0.00266  -0.01895   0.00000
  48  C 3   dyz      0.00000   0.00000   0.00000   0.00000   0.00000  -0.00394
  49  C 3   dzz     -0.00703   0.00452   0.01005   0.00626  -0.00099   0.00000
  50  H 3   s        0.15177   0.00226   0.05743  -0.14418   0.14888  -0.00003
  51  H 3   s        0.08034   0.00212   0.04207  -0.10264   0.12643  -0.00002
  52  C 4   s        0.05805   0.00216  -0.01875  -0.01742  -0.00086   0.00000
  53  C 4   s       -0.12237  -0.00284   0.04201   0.04354   0.01002   0.00000
  54  C 4   px       0.15309  -0.13916   0.14924   0.21779   0.24892  -0.00005
  55  C 4   py       0.00000   0.00000   0.00000   0.00000   0.00004   0.21463
  56  C 4   pz       0.06461   0.24243   0.00917   0.17310  -0.01747   0.00000
  57  C 4   s       -0.15976  -0.00394   0.05676   0.06065  -0.02944   0.00001
  58  C 4   px       0.05520  -0.04522   0.03396   0.09003   0.08011  -0.00001
  59  C 4   py       0.00000   0.00000   0.00000   0.00000   0.00002   0.12250
  60  C 4   pz       0.02708   0.07833   0.03682   0.04282  -0.01557   0.00000
  61  C 4   dxx     -0.00577  -0.00236   0.00598  -0.01248  -0.00864   0.00000
  62  C 4   dxy      0.00000   0.00000   0.00000   0.00000   0.00000   0.01072
  63  C 4   dyy      0.00542  -0.00010  -0.00129  -0.00085   0.00115   0.00000
  64  C 4   dxz     -0.01520   0.00243  -0.00589  -0.00266  -0.01895   0.00000
  65  C 4   dyz      0.00000   0.00000   0.00000   0.00000   0.00000   0.00394
  66  C 4   dzz      0.00703   0.00452  -0.01005   0.00626   0.00099   0.00000
  67  H 4   s       -0.15177   0.00226  -0.05744  -0.14418  -0.14887   0.00003
  68  H 4   s       -0.08034   0.00212  -0.04208  -0.10264  -0.12642   0.00002
  69  C 5   s       -0.06354   0.00001  -0.00073   0.00000  -0.00001   0.00000
  70  C 5   s        0.13314  -0.00002   0.00687   0.00000   0.00002   0.00000
  71  C 5   px       0.00004   0.27728   0.00002  -0.08248  -0.26040   0.00005
  72  C 5   py       0.00000   0.00000   0.00000   0.00000   0.00004   0.24310
  73  C 5   pz      -0.07997   0.00003   0.33140   0.00004   0.00003   0.00000
  74  C 5   s        0.16916  -0.00003   0.00983   0.00000   0.00003   0.00000
  75  C 5   px       0.00001   0.07994   0.00000   0.01474  -0.08976   0.00002
  76  C 5   py       0.00000   0.00000   0.00000   0.00000   0.00003   0.13990
  77  C 5   pz      -0.03399   0.00001   0.11774   0.00002   0.00001   0.00000
  78  C 5   dxx     -0.01478   0.00000   0.00414   0.00000   0.00000   0.00000
  79  C 5   dxy      0.00000   0.00000   0.00000   0.00000   0.00000   0.00000
  80  C 5   dyy     -0.00425   0.00000   0.00046   0.00000   0.00000   0.00000
  81  C 5   dxz      0.00000   0.00625   0.00000  -0.01355  -0.01279   0.00000
  82  C 5   dyz      0.00000   0.00000   0.00000   0.00000   0.00000   0.01225
  83  C 5   dzz      0.01044   0.00000  -0.01109   0.00000   0.00000   0.00000
  84  H 5   s        0.10714  -0.00002  -0.18762  -0.00003  -0.00001   0.00000
  85  H 5   s        0.05069  -0.00001  -0.12376  -0.00001  -0.00001   0.00000
  86  C 6   s        0.05804  -0.00217  -0.01875   0.01742   0.00087   0.00000
  87  C 6   s       -0.12235   0.00286   0.04201  -0.04355  -0.01004   0.00000
  88  C 6   px      -0.15314  -0.13915  -0.14928   0.21776   0.24887  -0.00005
  89  C 6   py       0.00000   0.00000   0.00000   0.00000   0.00004   0.21468
  90  C 6   pz       0.06459  -0.24245   0.00916  -0.17313   0.01748   0.00000
  91  C 6   s       -0.15976   0.00396   0.05676  -0.06066   0.02943   0.00000
  92  C 6   px      -0.05521  -0.04522  -0.03398   0.09002   0.08010  -0.00002
  93  C 6   py       0.00000   0.00000   0.00000   0.00000   0.00002   0.12253
  94  C 6   pz       0.02707  -0.07834   0.03681  -0.04283   0.01559   0.00000
  95  C 6   dxx     -0.00577   0.00236   0.00598   0.01248   0.00864   0.00000
  96  C 6   dxy      0.00000   0.00000   0.00000   0.00000   0.00000  -0.01072
  97  C 6   dyy      0.00542   0.00010  -0.00129   0.00085  -0.00115   0.00000
  98  C 6   dxz      0.01521   0.00242   0.00589  -0.00266  -0.01895   0.00000
  99  C 6   dyz      0.00000   0.00000   0.00000   0.00000   0.00000   0.00395
 100  C 6   dzz      0.00703  -0.00452  -0.01005  -0.00626  -0.00100   0.00000
 101  H 6   s       -0.15179  -0.00223  -0.05746   0.14418   0.14884  -0.00003
 102  H 6   s       -0.08036  -0.00211  -0.04209   0.10264   0.12640  -0.00002
                        19        20        21        22        23        24
 eigenvalues:         -0.563    -0.478    -0.405    -0.220    -0.210    -0.098
   1  C 1   s        0.00274   0.00000   0.00000   0.00000   0.00000   0.03613
   2  C 1   s        0.00365   0.00000   0.00000   0.00000   0.00000  -0.07945
   3  C 1   px      -0.00002   0.00000   0.00000   0.00000   0.00000  -0.00001
   4  C 1   py       0.00000  -0.34773  -0.00004  -0.00005   0.37112   0.00000
   5  C 1   pz      -0.24297   0.00000   0.00000   0.00000   0.00000  -0.10656
   6  C 1   s       -0.04610   0.00000   0.00000   0.00000   0.00000  -0.45663
   7  C 1   px      -0.00002   0.00000   0.00000   0.00000   0.00000   0.00002
   8  C 1   py       0.00000  -0.23217  -0.00003  -0.00006   0.46067   0.00000
   9  C 1   pz      -0.07943   0.00000   0.00000   0.00000   0.00000  -0.24110
  10  C 1   dxx      0.01563   0.00000   0.00000   0.00000   0.00000  -0.01625
  11  C 1   dxy      0.00000   0.00000   0.02002   0.03140   0.00000   0.00000
  12  C 1   dyy      0.00122   0.00000   0.00000   0.00000   0.00000  -0.00320
  13  C 1   dxz      0.00000   0.00000   0.00000   0.00000   0.00000   0.00000
  14  C 1   dyz      0.00000   0.00898   0.00000   0.00000   0.00966   0.00000
  15  C 1   dzz     -0.02269   0.00000   0.00000   0.00000   0.00000   0.02421
  16  H 1   s       -0.17526   0.00000   0.00000   0.00000   0.00000   0.07648
  17  H 1   s       -0.14759   0.00000   0.00000   0.00000   0.00000   0.64890
  18  C 2   s       -0.00204   0.00000   0.00000   0.00000   0.00000   0.03996
  19  C 2   s       -0.00048   0.00000   0.00000   0.00000   0.00000  -0.08824
  20  C 2   px      -0.01199   0.00000   0.00000   0.00000   0.00000  -0.11021
  21  C 2   py       0.00000  -0.17393   0.29614   0.32614  -0.19031   0.00000
  22  C 2   pz       0.25339   0.00000   0.00000   0.00000   0.00000  -0.05858
  23  C 2   s        0.01540  -0.00001   0.00001   0.00000   0.00000  -0.49706
  24  C 2   px      -0.00782   0.00000   0.00000   0.00000   0.00000  -0.25830
  25  C 2   py       0.00000  -0.11387   0.21490   0.38797  -0.24654   0.00000
  26  C 2   pz       0.09251   0.00000   0.00000   0.00000   0.00000  -0.13895
  27  C 2   dxx      0.01443   0.00000   0.00000   0.00000   0.00000   0.01386
  28  C 2   dxy      0.00000   0.01183   0.00058  -0.00026  -0.01709   0.00000
  29  C 2   dyy     -0.00035   0.00000   0.00000   0.00000   0.00000  -0.00180
  30  C 2   dxz      0.00443   0.00000   0.00000   0.00000   0.00000   0.02096
  31  C 2   dyz      0.00000  -0.01250  -0.01009   0.01691   0.02176   0.00000
  32  C 2   dzz     -0.01226   0.00000   0.00000   0.00000   0.00000  -0.00767
  33  H 2   s        0.08411   0.00000   0.00000   0.00000   0.00000   0.08178
  34  H 2   s        0.07115   0.00000   0.00000   0.00000   0.00000   0.73323
  35  C 3   s       -0.00204   0.00000   0.00000   0.00000   0.00000   0.03995
  36  C 3   s       -0.00049   0.00000   0.00000   0.00000   0.00000  -0.08822
  37  C 3   px       0.01197   0.00000   0.00000   0.00000   0.00000   0.11014
  38  C 3   py       0.00000  -0.17390  -0.29613  -0.32607  -0.19035   0.00000
  39  C 3   pz       0.25347   0.00000   0.00000   0.00000   0.00000  -0.05855
  40  C 3   s        0.01537   0.00000   0.00000   0.00001   0.00000  -0.49685
  41  C 3   px       0.00780   0.00000   0.00000   0.00000   0.00000   0.25817
  42  C 3   py       0.00000  -0.11386  -0.21490  -0.38790  -0.24659   0.00000
  43  C 3   pz       0.09254   0.00000   0.00000   0.00000   0.00000  -0.13886
  44  C 3   dxx      0.01443   0.00000   0.00000   0.00000   0.00000   0.01386
  45  C 3   dxy      0.00000  -0.01183   0.00057  -0.00027   0.01709   0.00000
  46  C 3   dyy     -0.00035   0.00000   0.00000   0.00000   0.00000  -0.00180
  47  C 3   dxz     -0.00443   0.00000   0.00000   0.00000   0.00000  -0.02095
  48  C 3   dyz      0.00000  -0.01250   0.01009  -0.01691   0.02176   0.00000
  49  C 3   dzz     -0.01226   0.00000   0.00000   0.00000   0.00000  -0.00767
  50  H 3   s        0.08414   0.00000   0.00000   0.00000   0.00000   0.08176
  51  H 3   s        0.07117   0.00000   0.00000   0.00000   0.00000   0.73292
  52  C 4   s       -0.00204   0.00000   0.00000   0.00000   0.00000   0.03995
  53  C 4   s       -0.00049   0.00000   0.00000   0.00000   0.00000  -0.08822
  54  C 4   px       0.01197   0.00000   0.00000   0.00000   0.00000   0.11014
  55  C 4   py       0.00000   0.17390  -0.29613   0.32609  -0.19033   0.00000
  56  C 4   pz      -0.25347   0.00000   0.00000   0.00000   0.00000   0.05855
  57  C 4   s        0.01537   0.00000  -0.00001   0.00000   0.00000  -0.49685
  58  C 4   px       0.00780   0.00000   0.00000   0.00000   0.00000   0.25818
  59  C 4   py       0.00000   0.11386  -0.21490   0.38792  -0.24657  -0.00001
  60  C 4   pz      -0.09254   0.00000   0.00000   0.00000   0.00000   0.13886
  61  C 4   dxx      0.01443   0.00000   0.00000   0.00000   0.00000   0.01386
  62  C 4   dxy      0.00000   0.01183   0.00057   0.00027   0.01709   0.00000
  63  C 4   dyy     -0.00035   0.00000   0.00000   0.00000   0.00000  -0.00180
  64  C 4   dxz      0.00443   0.00000   0.00000   0.00000   0.00000   0.02095
  65  C 4   dyz      0.00000  -0.01250  -0.01009  -0.01691  -0.02176   0.00000
  66  C 4   dzz     -0.01226   0.00000   0.00000   0.00000   0.00000  -0.00767
  67  H 4   s        0.08414   0.00000   0.00000   0.00000   0.00000   0.08176
  68  H 4   s        0.07117   0.00000   0.00000   0.00000   0.00000   0.73293
  69  C 5   s        0.00274   0.00000   0.00000   0.00000   0.00000   0.03613
  70  C 5   s        0.00365   0.00000   0.00000   0.00000   0.00000  -0.07945
  71  C 5   px      -0.00002   0.00000   0.00000   0.00000   0.00000  -0.00001
  72  C 5   py       0.00000   0.34773  -0.00005   0.00003   0.37111   0.00000
  73  C 5   pz       0.24297   0.00000   0.00000   0.00000   0.00000   0.10656
  74  C 5   s       -0.04610  -0.00001   0.00000   0.00000   0.00000  -0.45664
  75  C 5   px      -0.00002   0.00000   0.00000   0.00000   0.00000   0.00002
  76  C 5   py       0.00000   0.23218  -0.00004   0.00004   0.46067   0.00001
  77  C 5   pz       0.07943   0.00000   0.00000   0.00000   0.00000   0.24110
  78  C 5   dxx      0.01563   0.00000   0.00000   0.00000   0.00000  -0.01625
  79  C 5   dxy      0.00000   0.00000   0.02002  -0.03140   0.00000   0.00000
  80  C 5   dyy      0.00122   0.00000   0.00000   0.00000   0.00000  -0.00320
  81  C 5   dxz      0.00000   0.00000   0.00000   0.00000   0.00000   0.00000
  82  C 5   dyz      0.00000   0.00897   0.00000   0.00000  -0.00967   0.00000
  83  C 5   dzz     -0.02269   0.00000   0.00000   0.00000   0.00000   0.02421
  84  H 5   s       -0.17526   0.00000   0.00000   0.00000   0.00000   0.07649
  85  H 5   s       -0.14759   0.00000   0.00000   0.00000   0.00000   0.64891
  86  C 6   s       -0.00205   0.00000   0.00000   0.00000   0.00000   0.03996
  87  C 6   s       -0.00048   0.00000   0.00000   0.00000   0.00000  -0.08823
  88  C 6   px      -0.01199   0.00000   0.00000   0.00000   0.00000  -0.11021
  89  C 6   py       0.00000   0.17394   0.29612  -0.32613  -0.19032   0.00000
  90  C 6   pz      -0.25339   0.00000   0.00000   0.00000   0.00000   0.05858
  91  C 6   s        0.01540   0.00001   0.00000   0.00000   0.00000  -0.49705
  92  C 6   px      -0.00782   0.00000   0.00000   0.00000   0.00000  -0.25829
  93  C 6   py       0.00000   0.11389   0.21489  -0.38797  -0.24655   0.00000
  94  C 6   pz      -0.09251   0.00000   0.00000   0.00000   0.00000   0.13895
  95  C 6   dxx      0.01443   0.00000   0.00000   0.00000   0.00000   0.01386
  96  C 6   dxy      0.00000  -0.01183   0.00058   0.00027  -0.01709   0.00000
  97  C 6   dyy     -0.00035   0.00000   0.00000   0.00000   0.00000  -0.00180
  98  C 6   dxz     -0.00443   0.00000   0.00000   0.00000   0.00000  -0.02096
  99  C 6   dyz      0.00000  -0.01250   0.01009   0.01691  -0.02176   0.00000
 100  C 6   dzz     -0.01226   0.00000   0.00000   0.00000   0.00000  -0.00767
 101  H 6   s        0.08411   0.00000   0.00000   0.00000   0.00000   0.08178
 102  H 6   s        0.07115   0.00000   0.00000   0.00000   0.00000   0.73322
                        25
 eigenvalues:         -0.061
   1  C 1   s        0.00000
   2  C 1   s        0.00000
   3  C 1   px       0.00000
   4  C 1   py      -0.30509
   5  C 1   pz       0.00000
   6  C 1   s       -0.00001
   7  C 1   px       0.00000
   8  C 1   py      -0.50536
   9  C 1   pz       0.00001
  10  C 1   dxx      0.00000
  11  C 1   dxy      0.00000
  12  C 1   dyy      0.00000
  13  C 1   dxz      0.00000
  14  C 1   dyz     -0.01663
  15  C 1   dzz      0.00000
  16  H 1   s        0.00000
  17  H 1   s       -0.00001
  18  C 2   s        0.00000
  19  C 2   s       -0.00001
  20  C 2   px       0.00000
  21  C 2   py       0.30151
  22  C 2   pz       0.00000
  23  C 2   s        0.00000
  24  C 2   px      -0.00001
  25  C 2   py       0.49059
  26  C 2   pz       0.00000
  27  C 2   dxx      0.00000
  28  C 2   dxy      0.01470
  29  C 2   dyy      0.00000
  30  C 2   dxz      0.00000
  31  C 2   dyz      0.00692
  32  C 2   dzz      0.00000
  33  H 2   s        0.00000
  34  H 2   s        0.00002
  35  C 3   s        0.00000
  36  C 3   s        0.00000
  37  C 3   px       0.00000
  38  C 3   py       0.30155
  39  C 3   pz       0.00000
  40  C 3   s        0.00000
  41  C 3   px       0.00000
  42  C 3   py       0.49070
  43  C 3   pz       0.00000
  44  C 3   dxx      0.00000
  45  C 3   dxy     -0.01470
  46  C 3   dyy      0.00000
  47  C 3   dxz      0.00000
  48  C 3   dyz      0.00692
  49  C 3   dzz      0.00000
  50  H 3   s        0.00000
  51  H 3   s        0.00000
  52  C 4   s        0.00000
  53  C 4   s        0.00001
  54  C 4   px      -0.00001
  55  C 4   py      -0.30156
  56  C 4   pz       0.00000
  57  C 4   s        0.00002
  58  C 4   px      -0.00002
  59  C 4   py      -0.49070
  60  C 4   pz       0.00000
  61  C 4   dxx      0.00000
  62  C 4   dxy      0.01470
  63  C 4   dyy      0.00000
  64  C 4   dxz      0.00000
  65  C 4   dyz      0.00692
  66  C 4   dzz      0.00000
  67  H 4   s        0.00000
  68  H 4   s       -0.00003
  69  C 5   s        0.00000
  70  C 5   s        0.00000
  71  C 5   px       0.00000
  72  C 5   py       0.30509
  73  C 5   pz       0.00000
  74  C 5   s        0.00002
  75  C 5   px       0.00000
  76  C 5   py       0.50537
  77  C 5   pz       0.00000
  78  C 5   dxx      0.00000
  79  C 5   dxy      0.00000
  80  C 5   dyy      0.00000
  81  C 5   dxz      0.00000
  82  C 5   dyz     -0.01663
  83  C 5   dzz      0.00000
  84  H 5   s        0.00000
  85  H 5   s       -0.00001
  86  C 6   s        0.00000
  87  C 6   s        0.00000
  88  C 6   px       0.00000
  89  C 6   py      -0.30151
  90  C 6   pz       0.00000
  91  C 6   s        0.00000
  92  C 6   px       0.00001
  93  C 6   py      -0.49060
  94  C 6   pz       0.00000
  95  C 6   dxx      0.00000
  96  C 6   dxy     -0.01470
  97  C 6   dyy      0.00000
  98  C 6   dxz      0.00000
  99  C 6   dyz      0.00692
 100  C 6   dzz      0.00000
 101  H 6   s        0.00000
 102  H 6   s       -0.00001
 
          Ground-State Mulliken Net Atomic Charges

     Atom                 Charge (a.u.)    Spin (a.u.)
  --------------------------------------------------------
      1 C                    -0.099333      -0.133268
      2 H                     0.237001       0.002875
      3 C                    -0.067423       0.329147
      4 H                     0.248504      -0.013968
      5 C                    -0.067220       0.329175
      6 H                     0.248478      -0.013973
      7 C                    -0.067219       0.329205
      8 H                     0.248477      -0.013973
      9 C                    -0.099341      -0.133269
     10 H                     0.236999       0.002880
     11 C                    -0.067425       0.329136
     12 H                     0.248503      -0.013967
  --------------------------------------------------------
  Sum of atomic charges =     1.000000
  Sum of spin   charges =     1.000000

 -----------------------------------------------------------------
                    Cartesian Multipole Moments
 -----------------------------------------------------------------
    Charge (ESU x 10^10)
                 4.8032
    Dipole Moment (Debye)
         X      -0.0017      Y       0.0000      Z      -6.9122
       Tot       6.9122
    Quadrupole Moments (Debye-Ang)
        XX     -18.6375     XY       0.0000     YY     -34.8656
        XZ       0.0025     YZ       0.0000     ZZ     -11.0212
    Octapole Moments (Debye-Ang^2)
       XXX      -0.0017    XXY       0.0000    XYY      -0.0007
       YYY       0.0000    XXZ      26.8211    XYZ       0.0000
       YYZ      50.1749    XZZ      -0.0046    YZZ       0.0000
       ZZZ      76.2119
    Hexadecapole Moments (Debye-Ang^3)
      XXXX    -198.6461   XXXY       0.0000   XXYY     -51.6255
      XYYY       0.0000   YYYY     -34.2268   XXXZ       0.0025
      XXYZ       0.0000   XYYZ       0.0011   YYYZ       0.0000
      XXZZ    -108.1538   XYZZ       0.0000   YYZZ    -129.4238
      XZZZ       0.0093   YZZZ       0.0000   ZZZZ    -461.7630
 -----------------------------------------------------------------
Archival summary:
1\1\node09\SP\ProcedureUnspecified\6-31G*\C6H6(1+,2)\rkanters\2009Tue72009\0\\#,ProcedureUnspecified,6-31G*,\\1,2\C\H,1,1.08467\C,1,1.39129,2,120.799\H,3,1.08637,1,120.613,2,0,0\C,1,1.39129,2,120.799,3,-180,0\H,5,1.08637,1,120.613,2,0,0\C,3,1.45341,1,120.799,2,180,0\H,7,1.08637,3,118.588,1,180,0\C,7,1.39129,3,120.799,1,0,0\H,9,1.08467,7,120.799,3,180,0\C,9,1.39129,7,118.401,3,0,0\H,11,1.08637,9,120.613,7,180,0\\\@

 Total job time:  17.52s(wall), 24.76s(cpu) 
 Tue Apr  7 07:49:08 2009

        *************************************************************
        *                                                           *
        *  Thank you very much for using Q-Chem.  Have a nice day.  *
        *                                                           *
        *************************************************************


0 sent ACK to 0 
now end server 0 ... 
