Process 0 of 1 is on node09 - thread support 1
initial socket setup ...start
initial socket setup ...done 
now start server 0 ... 
                  Welcome to Q-Chem
     A Quantum Leap Into The Future Of Chemistry

 Y. Shao, L. Fusti-Molnar, Y. Jung, J. Kussmann, C. Ochsenfeld,
 S. T. Brown, A. T. B. Gilbert, L. V. Slipchenko,S. V. Levchenko,
 D. P. O'Neill, R. A. DiStasio Jr., R. C. Lochan, T. Wang,
 G. J. O. Beran, N. A. Besley, J. M. Herbert, C. Y. Lin,
 T. Van Voorhis, S. H. Chien, A. Sodt, R. P. Steele, 
 V. A. Rassolov, P. E. Maslen, P. P. Korambath, R. D. Adamson,
 B. Austin, J. Baker, E. F. C. Byrd, H. Dachsel, R. J. Doerksen,
 A. Dreuw, B. D. Dunietz, A. D. Dutoi, T. R. Furlani,
 S. R. Gwaltney, A. Heyden, S. Hirata, C.-P. Hsu, G. Kedziora,
 R. Z. Khaliullin, P. Klunzinger, A. M. Lee, M. S. Lee, W. Liang,
 I. Lotan, N. Nair, B. Peters, E. I. Proynov, P. A. Pieniazek, 
 Y. M. Rhee, J. Ritchie, E. Rosta, C. D. Sherrill, 
 A. C. Simmonett, J. E. Subotnik, H. L. Woodcock III,
 W. Zhang, A. T. Bell, A. K. Chakraborty, D. M. Chipman,
 F. J. Keil, A. Warshel, W. J. Hehre, H. F. Schaefer III,
 J. Kong, A. I. Krylov, P. M. W. Gill, M. Head-Gordon,
 Q-Chem, Version 3.1, Q-Chem, Inc., Pittsburgh, PA (2007).

 Additional authors for Version 3.1: 
 Z. Gan, Y. Zhao, N. E. Schultz, D. Truhlar, E. Epifanovsky and M. Oana.

 Additional authors for Version 3.2: 
 R. Baer, B. R. Brooks, D. Casanova, J.-D. Chai, C.-L. Cheng, 
 C. Cramer, D. Crittenden, A. Ghysels, G. Hawkins, E. G. Hohenstein, 
 C. Kelley, W. Kurlancheek, D. Liotard, E. Livshits, P. Manohar, 
 A. Marenich, D. Neuhauser, R. Olson, M. A. Rohrdanz, K. S. Thanthiriwatte, 
 A. J. W. Thom, V. Vanovschi, C. F. Williams, Q. Wu and Z.-Q. You. 


 Intel X86 EM64T Linux Version

 Q-chem begins on Tue Apr  7 07:48:28 2009  

 Parallel job on  1  processors
Processing $rem in /usr/local/qchem3201/config/preferences.

theFileMan(): MAXOPENFILES=974 MAX_SUB_FILE_NUM=16
Maximum size of a physical file is 2.0 GB, maximum size of a tmp-file is 32.0 GB


--------------------------------------------------------------
User input:
--------------------------------------------------------------
$comment
  Benzene+ ROB3LYP/6-31G*
$end

$molecule
1 2
 C 
 H  1 1.084672
 C  1 1.391291 2 120.799401
 H  3 1.086372 1 120.612936 2 0.000000 0
 C  1 1.391291 2 120.799407 3 -180.000000 0
 H  5 1.086371 1 120.612927 2 0.000000 0
 C  5 1.453415 1 120.799408 2 -180.000000 0
 H  7 1.086371 5 118.587662 1 -180.000000 0
 C  7 1.391291 5 120.799405 1 0.000000 0
 H  9 1.084672 7 120.799412 5 -180.000000 0
 C  9 1.391291 7 118.401191 5 0.000000 0
 H  11 1.086372 9 120.612935 7 -180.000000 0
$end

$rem
  sym_ignore          TRUE
  jobtype             SP
  exchange            B3LYP
  basis               6-31G*
  unrestricted        FALSE
  scf_algorithm       DM
  max_scf_cycles      100

  print_general_basis TRUE
  print_orbitals      TRUE
$end

--------------------------------------------------------------
 Writing REM_CC_EA           12
 ----------------------------------------------------
       Standard Nuclear Orientation (Angstroms)
    I     Atom         X            Y            Z
 ----------------------------------------------------
    1      C       0.000000     0.000000     0.000000
    2      H       0.000000     0.000000     1.084672
    3      C       1.195071     0.000000    -0.712388
    4      H       2.148999     0.000000    -0.192556
    5      C      -1.195071     0.000000    -0.712388
    6      H      -2.148998     0.000000    -0.192557
    7      C      -1.195071     0.000000    -2.165803
    8      H      -2.148998     0.000000    -2.685635
    9      C       0.000000     0.000000    -2.878192
   10      H       0.000000     0.000000    -3.962864
   11      C       1.195071     0.000000    -2.165803
   12      H       2.148999     0.000000    -2.685635
 ----------------------------------------------------
 Nuclear Repulsion Energy =   201.3896721949 hartrees
 There are       21 alpha and       20 beta electrons
 Requested basis set is 6-31G(d)
Basis set in general basis input format:
-----------------------------------------------------------------------
$basis
C    0
S    6    1.000000
   3.04752490E+03    1.83470000E-03 
   4.57369510E+02    1.40373000E-02 
   1.03948690E+02    6.88426000E-02 
   2.92101550E+01    2.32184400E-01 
   9.28666300E+00    4.67941300E-01 
   3.16392700E+00    3.62312000E-01 
SP   3    1.000000
   7.86827240E+00   -1.19332400E-01   6.89991000E-02 
   1.88128850E+00   -1.60854200E-01   3.16424000E-01 
   5.44249300E-01    1.14345640E+00   7.44308300E-01 
SP   1    1.000000
   1.68714400E-01    1.00000000E+00   1.00000000E+00 
D    1    1.000000
   8.00000000E-01    1.00000000E+00 
****
H    0
S    3    1.000000
   1.87311370E+01    3.34946000E-02 
   2.82539370E+00    2.34726950E-01 
   6.40121700E-01    8.13757330E-01 
S    1    1.000000
   1.61277800E-01    1.00000000E+00 
****
C    0
S    6    1.000000
   3.04752490E+03    1.83470000E-03 
   4.57369510E+02    1.40373000E-02 
   1.03948690E+02    6.88426000E-02 
   2.92101550E+01    2.32184400E-01 
   9.28666300E+00    4.67941300E-01 
   3.16392700E+00    3.62312000E-01 
SP   3    1.000000
   7.86827240E+00   -1.19332400E-01   6.89991000E-02 
   1.88128850E+00   -1.60854200E-01   3.16424000E-01 
   5.44249300E-01    1.14345640E+00   7.44308300E-01 
SP   1    1.000000
   1.68714400E-01    1.00000000E+00   1.00000000E+00 
D    1    1.000000
   8.00000000E-01    1.00000000E+00 
****
H    0
S    3    1.000000
   1.87311370E+01    3.34946000E-02 
   2.82539370E+00    2.34726950E-01 
   6.40121700E-01    8.13757330E-01 
S    1    1.000000
   1.61277800E-01    1.00000000E+00 
****
C    0
S    6    1.000000
   3.04752490E+03    1.83470000E-03 
   4.57369510E+02    1.40373000E-02 
   1.03948690E+02    6.88426000E-02 
   2.92101550E+01    2.32184400E-01 
   9.28666300E+00    4.67941300E-01 
   3.16392700E+00    3.62312000E-01 
SP   3    1.000000
   7.86827240E+00   -1.19332400E-01   6.89991000E-02 
   1.88128850E+00   -1.60854200E-01   3.16424000E-01 
   5.44249300E-01    1.14345640E+00   7.44308300E-01 
SP   1    1.000000
   1.68714400E-01    1.00000000E+00   1.00000000E+00 
D    1    1.000000
   8.00000000E-01    1.00000000E+00 
****
H    0
S    3    1.000000
   1.87311370E+01    3.34946000E-02 
   2.82539370E+00    2.34726950E-01 
   6.40121700E-01    8.13757330E-01 
S    1    1.000000
   1.61277800E-01    1.00000000E+00 
****
C    0
S    6    1.000000
   3.04752490E+03    1.83470000E-03 
   4.57369510E+02    1.40373000E-02 
   1.03948690E+02    6.88426000E-02 
   2.92101550E+01    2.32184400E-01 
   9.28666300E+00    4.67941300E-01 
   3.16392700E+00    3.62312000E-01 
SP   3    1.000000
   7.86827240E+00   -1.19332400E-01   6.89991000E-02 
   1.88128850E+00   -1.60854200E-01   3.16424000E-01 
   5.44249300E-01    1.14345640E+00   7.44308300E-01 
SP   1    1.000000
   1.68714400E-01    1.00000000E+00   1.00000000E+00 
D    1    1.000000
   8.00000000E-01    1.00000000E+00 
****
H    0
S    3    1.000000
   1.87311370E+01    3.34946000E-02 
   2.82539370E+00    2.34726950E-01 
   6.40121700E-01    8.13757330E-01 
S    1    1.000000
   1.61277800E-01    1.00000000E+00 
****
C    0
S    6    1.000000
   3.04752490E+03    1.83470000E-03 
   4.57369510E+02    1.40373000E-02 
   1.03948690E+02    6.88426000E-02 
   2.92101550E+01    2.32184400E-01 
   9.28666300E+00    4.67941300E-01 
   3.16392700E+00    3.62312000E-01 
SP   3    1.000000
   7.86827240E+00   -1.19332400E-01   6.89991000E-02 
   1.88128850E+00   -1.60854200E-01   3.16424000E-01 
   5.44249300E-01    1.14345640E+00   7.44308300E-01 
SP   1    1.000000
   1.68714400E-01    1.00000000E+00   1.00000000E+00 
D    1    1.000000
   8.00000000E-01    1.00000000E+00 
****
H    0
S    3    1.000000
   1.87311370E+01    3.34946000E-02 
   2.82539370E+00    2.34726950E-01 
   6.40121700E-01    8.13757330E-01 
S    1    1.000000
   1.61277800E-01    1.00000000E+00 
****
C    0
S    6    1.000000
   3.04752490E+03    1.83470000E-03 
   4.57369510E+02    1.40373000E-02 
   1.03948690E+02    6.88426000E-02 
   2.92101550E+01    2.32184400E-01 
   9.28666300E+00    4.67941300E-01 
   3.16392700E+00    3.62312000E-01 
SP   3    1.000000
   7.86827240E+00   -1.19332400E-01   6.89991000E-02 
   1.88128850E+00   -1.60854200E-01   3.16424000E-01 
   5.44249300E-01    1.14345640E+00   7.44308300E-01 
SP   1    1.000000
   1.68714400E-01    1.00000000E+00   1.00000000E+00 
D    1    1.000000
   8.00000000E-01    1.00000000E+00 
****
H    0
S    3    1.000000
   1.87311370E+01    3.34946000E-02 
   2.82539370E+00    2.34726950E-01 
   6.40121700E-01    8.13757330E-01 
S    1    1.000000
   1.61277800E-01    1.00000000E+00 
****
$end
-----------------------------------------------------------------------
 There are 36 shells and 102 basis functions

Total QAlloc Memory Limit   2000 MB
Mega-Array Size        61 MB
MEM_STATIC part        62 MB

                       Distance Matrix (Angstroms)
             C (  1)   H (  2)   C (  3)   H (  4)   C (  5)   H (  6)
   H (  2)  1.084672
   C (  3)  1.391291  2.158152
   H (  4)  2.157608  2.499901  1.086372
   C (  5)  1.391291  2.158152  2.390141  3.384232
   H (  6)  2.157607  2.499901  3.384231  4.297996  1.086371
   C (  7)  2.473641  3.463204  2.797354  3.882847  1.453415  2.191730
   H (  8)  3.439597  4.339747  3.882846  4.968724  2.191730  2.493078
   C (  9)  2.878192  3.962864  2.473641  3.439598  2.473640  3.439597
   H ( 10)  3.962864  5.047536  3.463204  4.339748  3.463204  4.339747
   C ( 11)  2.473641  3.463204  1.453415  2.191731  2.797354  3.882846
   H ( 12)  3.439598  4.339748  2.191731  2.493079  3.882847  4.968724
             C (  7)   H (  8)   C (  9)   H ( 10)   C ( 11)
   H (  8)  1.086371
   C (  9)  1.391291  2.157607
   H ( 10)  2.158152  2.499901  1.084672
   C ( 11)  2.390141  3.384231  1.391291  2.158152
   H ( 12)  3.384232  4.297996  2.157608  2.499901  1.086372
 
 A cutoff of  1.0D-09 yielded    630 shell pairs
 There are   5379 function pairs
Evaluating contribution to one-electron hamiltonian from nuclear
 Smallest overlap matrix eigenvalue = 5.77E-04
 Multipole matrices computed through 2nd order

  Scale SEOQF with 1.000000e-01/1.000000e+00/1.000000e-01

 Standard Electronic Orientation quadrupole field applied
 Nucleus-field energy     =    -0.0000000135 hartrees
 Constructing guess Fock matrix from core Hamiltonian
 Applying Wolfsberg-Helmholtz approximation
 A restricted hybrid HF-DFT SCF calculation will be
 performed using direct minimization
 Exchange:     0.2000 Hartree-Fock + 0.0800 Slater + 0.7200 Becke
 Correlation:  0.8100 LYP + 0.1900 VWN1RPA
 Using SG-1 standard quadrature grid
 SCF converges when RMS gradient is below 1.0E-05
 ---------------------------------------
  Cycle       Energy        RMS Gradient
 ---------------------------------------
    1    -229.5077508808      1.81E-01
    2    -231.5124873240      6.99E-02
    3    -231.2848592838      5.73E-02Energy rises: line search
    4    -231.8384495235      3.01E-02
    5    -231.9167652367      6.36E-03
    6    -231.9204507817      1.51E-03
    7    -231.9206284336      1.16E-03
    8    -231.9207513089      2.82E-04BFGS subspace was reset
    9    -231.9207631510      3.89E-04
   10    -231.9207476106      5.50E-04Energy rises: line search
   11    -231.9207791642      5.55E-05
   12    -231.9207797736      2.03E-05
   13    -231.9207789624      4.65E-06 Convergence criterion met
 ---------------------------------------
 SCF time:  CPU 37.12 s  wall 34.27 s
 Analysis of SCF Wavefunction
 
 --------------------------------------------------------------
                    Orbital Energies (a.u.)
 --------------------------------------------------------------
 
 Alpha MOs
 -- Occupied --
-10.449 -10.449 -10.449 -10.449 -10.414 -10.414  -1.089  -0.981
 -0.980  -0.836  -0.828  -0.744  -0.685  -0.678  -0.648  -0.644
 -0.602  -0.575  -0.567  -0.487  -0.494
 -- Virtual --
 -0.257  -0.226  -0.100  -0.083  -0.044  -0.042  -0.026  -0.006
  0.003   0.069   0.077   0.093   0.100   0.265   0.297   0.300
  0.312   0.319   0.365   0.375   0.373   0.383   0.385   0.398
  0.405   0.436   0.453   0.527   0.624   0.626   0.647   0.659
  0.672   0.705   0.721   0.731   0.733   0.850   0.874   0.901
  0.915   0.978   1.012   1.155   1.202   1.213   1.231   1.238
  1.264   1.269   1.506   1.531   1.621   1.656   1.730   1.745
  1.787   1.822   1.854   1.874   1.901   1.930   1.997   2.075
  2.074   2.271   2.319   2.379   2.418   2.441   2.460   2.489
  2.517   2.761   3.128   3.822   3.845   3.897   4.084   4.089
  4.412
 
 Beta MOs
 -- Occupied --
-10.446 -10.446 -10.446 -10.446 -10.414 -10.414  -1.079  -0.976
 -0.964  -0.829  -0.821  -0.741  -0.680  -0.673  -0.646  -0.639
 -0.571  -0.572  -0.563  -0.475
 -- Virtual --
 -0.409  -0.223  -0.208  -0.098  -0.062  -0.042  -0.041  -0.018
 -0.004   0.007   0.073   0.081   0.095   0.104   0.267   0.311
  0.311   0.315   0.323   0.370   0.380   0.392   0.389   0.389
  0.400   0.415   0.453   0.459   0.536   0.627   0.628   0.648
  0.663   0.673   0.708   0.727   0.733   0.735   0.857   0.877
  0.903   0.921   0.982   1.027   1.167   1.207   1.217   1.247
  1.248   1.270   1.288   1.525   1.534   1.623   1.662   1.734
  1.752   1.791   1.829   1.871   1.894   1.908   1.939   2.016
  2.084   2.085   2.287   2.325   2.393   2.423   2.445   2.462
  2.491   2.529   2.764   3.132   3.829   3.855   3.900   4.094
  4.093   4.418
 --------------------------------------------------------------
 

                        RESTRICTED (RHF) MOLECULAR ORBITAL COEFFICIENTS
                         1         2         3         4         5         6
 eigenvalues:        -10.449   -10.449   -10.449   -10.449   -10.414   -10.414
   1  C 1   s        0.00682   0.00539   0.00734  -0.00301  -0.98500   0.12370
   2  C 1   s       -0.00012  -0.00010  -0.00034   0.00014  -0.04957   0.00597
   3  C 1   px       0.00019  -0.00024   0.00008   0.00020   0.00000   0.00000
   4  C 1   py       0.00000   0.00000   0.00000   0.00000   0.00000   0.00000
   5  C 1   pz       0.00023   0.00018   0.00017  -0.00007   0.00058  -0.00004
   6  C 1   s        0.00388   0.00308   0.01163  -0.00477   0.01983   0.00147
   7  C 1   px      -0.00092   0.00116  -0.00048  -0.00116   0.00000   0.00000
   8  C 1   py       0.00000   0.00000   0.00000   0.00000   0.00000   0.00000
   9  C 1   pz      -0.00159  -0.00126  -0.00609   0.00250  -0.00571  -0.00173
  10  C 1   dxx     -0.00036  -0.00029  -0.00050   0.00020   0.00905  -0.00113
  11  C 1   dxy      0.00000   0.00000   0.00000   0.00000   0.00000   0.00000
  12  C 1   dyy     -0.00023  -0.00018  -0.00029   0.00012   0.00946  -0.00129
  13  C 1   dxz     -0.00004   0.00005  -0.00004  -0.00010   0.00000   0.00000
  14  C 1   dyz      0.00000   0.00000   0.00000   0.00000   0.00000   0.00000
  15  C 1   dzz     -0.00024  -0.00019  -0.00032   0.00013   0.00923  -0.00118
  16  H 1   s       -0.00001  -0.00001   0.00011  -0.00005   0.00046   0.00001
  17  H 1   s        0.00036   0.00028   0.00126  -0.00052  -0.00053   0.00069
  18  C 2   s        0.08651   0.73074   0.25642  -0.61520   0.00875  -0.00100
  19  C 2   s        0.00415   0.03609   0.01315  -0.03092   0.00108   0.00000
  20  C 2   px       0.00004  -0.00021  -0.00010   0.00025  -0.00034   0.00005
  21  C 2   py       0.00000   0.00000   0.00000   0.00000   0.00000   0.00000
  22  C 2   pz       0.00000  -0.00003  -0.00022   0.00042   0.00013   0.00004
  23  C 2   s       -0.00144  -0.00806  -0.01197   0.01493  -0.00937  -0.00297
  24  C 2   px       0.00022   0.00125   0.00446  -0.00344   0.00461   0.00155
  25  C 2   py       0.00000   0.00000   0.00000   0.00000   0.00000   0.00000
  26  C 2   pz       0.00002  -0.00032   0.00278  -0.00299   0.00080   0.00102
  27  C 2   dxx     -0.00076  -0.00689  -0.00224   0.00557   0.00031  -0.00001
  28  C 2   dxy      0.00000   0.00000   0.00000   0.00000   0.00000   0.00000
  29  C 2   dyy     -0.00090  -0.00711  -0.00229   0.00575   0.00013   0.00002
  30  C 2   dxz     -0.00002  -0.00003  -0.00003   0.00010  -0.00015   0.00004
  31  C 2   dyz      0.00000   0.00000   0.00000   0.00000   0.00000   0.00000
  32  C 2   dzz     -0.00083  -0.00713  -0.00220   0.00530   0.00025   0.00003
  33  H 2   s       -0.00004  -0.00031  -0.00021   0.00026  -0.00006  -0.00006
  34  H 2   s        0.00025   0.00110  -0.00064  -0.00021  -0.00085  -0.00034
  35  C 3   s        0.72991  -0.08553   0.61578   0.25774   0.00874  -0.00100
  36  C 3   s        0.03602  -0.00434   0.03114   0.01277   0.00107   0.00000
  37  C 3   px       0.00020  -0.00009   0.00025   0.00011   0.00034  -0.00005
  38  C 3   py       0.00000   0.00000   0.00000   0.00000   0.00000   0.00000
  39  C 3   pz      -0.00003   0.00001  -0.00045  -0.00014   0.00013   0.00004
  40  C 3   s       -0.00815   0.00046  -0.01902  -0.00222  -0.00937  -0.00297
  41  C 3   px      -0.00126   0.00007  -0.00559   0.00069  -0.00461  -0.00155
  42  C 3   py       0.00000   0.00000   0.00000   0.00000   0.00000   0.00000
  43  C 3   pz      -0.00031   0.00010   0.00408   0.00017   0.00080   0.00102
  44  C 3   dxx     -0.00687   0.00087  -0.00551  -0.00239   0.00031  -0.00001
  45  C 3   dxy      0.00000   0.00000   0.00000   0.00000   0.00000   0.00000
  46  C 3   dyy     -0.00712   0.00078  -0.00568  -0.00248   0.00013   0.00002
  47  C 3   dxz      0.00003   0.00001   0.00009   0.00005   0.00015  -0.00004
  48  C 3   dyz      0.00000   0.00000   0.00000   0.00000   0.00000   0.00000
  49  C 3   dzz     -0.00712   0.00085  -0.00530  -0.00223   0.00025   0.00003
  50  H 3   s       -0.00031   0.00003  -0.00033  -0.00004  -0.00006  -0.00006
  51  H 3   s        0.00112  -0.00001  -0.00031   0.00060  -0.00085  -0.00034
  52  C 4   s        0.66259  -0.07868  -0.67854  -0.28294  -0.00119  -0.00872
  53  C 4   s        0.03262  -0.00402  -0.03423  -0.01402  -0.00027  -0.00104
  54  C 4   px       0.00017  -0.00008  -0.00026  -0.00012  -0.00003  -0.00035
  55  C 4   py       0.00000   0.00000   0.00000   0.00000   0.00000   0.00000
  56  C 4   pz      -0.00002  -0.00001  -0.00045  -0.00015   0.00007   0.00012
  57  C 4   s       -0.00628   0.00080   0.01967   0.00246   0.00519   0.00834
  58  C 4   px      -0.00075   0.00030   0.00568  -0.00065   0.00264   0.00408
  59  C 4   py       0.00000   0.00000   0.00000   0.00000   0.00000   0.00000
  60  C 4   pz       0.00070   0.00000   0.00403   0.00016   0.00119   0.00053
  61  C 4   dxx     -0.00626   0.00080   0.00610   0.00263  -0.00007  -0.00030
  62  C 4   dxy      0.00000   0.00000   0.00000   0.00000   0.00000   0.00000
  63  C 4   dyy     -0.00649   0.00071   0.00629   0.00272  -0.00006  -0.00012
  64  C 4   dxz     -0.00002  -0.00001   0.00009   0.00005   0.00000   0.00016
  65  C 4   dyz      0.00000   0.00000   0.00000   0.00000   0.00000   0.00000
  66  C 4   dzz     -0.00653   0.00079   0.00591   0.00248  -0.00009  -0.00024
  67  H 4   s       -0.00028   0.00004   0.00036   0.00005   0.00007   0.00004
  68  H 4   s        0.00113   0.00005   0.00021  -0.00063   0.00054   0.00074
  69  C 5   s        0.00618   0.00487  -0.00809   0.00333   0.12380   0.98498
  70  C 5   s       -0.00010  -0.00007   0.00035  -0.00014   0.00648   0.04950
  71  C 5   px       0.00018  -0.00023  -0.00009  -0.00022   0.00000   0.00000
  72  C 5   py       0.00000   0.00000   0.00000   0.00000   0.00000   0.00000
  73  C 5   pz      -0.00022  -0.00017   0.00020  -0.00008   0.00011   0.00057
  74  C 5   s        0.00290   0.00227  -0.01202   0.00494  -0.00633  -0.01885
  75  C 5   px      -0.00084   0.00106   0.00053   0.00129   0.00000   0.00000
  76  C 5   py       0.00000   0.00000   0.00000   0.00000   0.00000   0.00000
  77  C 5   pz       0.00108   0.00085  -0.00625   0.00257  -0.00309  -0.00511
  78  C 5   dxx     -0.00032  -0.00025   0.00054  -0.00022  -0.00115  -0.00904
  79  C 5   dxy      0.00000   0.00000   0.00000   0.00000   0.00000   0.00000
  80  C 5   dyy     -0.00020  -0.00016   0.00032  -0.00013  -0.00109  -0.00949
  81  C 5   dxz      0.00004  -0.00005  -0.00004  -0.00011   0.00000   0.00000
  82  C 5   dyz      0.00000   0.00000   0.00000   0.00000   0.00000   0.00000
  83  C 5   dzz     -0.00021  -0.00016   0.00035  -0.00014  -0.00114  -0.00923
  84  H 5   s       -0.00002  -0.00002  -0.00011   0.00004  -0.00013  -0.00044
  85  H 5   s        0.00025   0.00020  -0.00129   0.00053  -0.00054   0.00068
  86  C 6   s        0.07742   0.66169  -0.28423   0.67902  -0.00119  -0.00873
  87  C 6   s        0.00367   0.03261  -0.01451   0.03407  -0.00027  -0.00104
  88  C 6   px       0.00004  -0.00019   0.00010  -0.00027   0.00003   0.00035
  89  C 6   py       0.00000   0.00000   0.00000   0.00000   0.00000   0.00000
  90  C 6   pz      -0.00001  -0.00002  -0.00022   0.00042   0.00007   0.00012
  91  C 6   s       -0.00069  -0.00627   0.01227  -0.01558   0.00519   0.00834
  92  C 6   px      -0.00011   0.00079  -0.00450   0.00353  -0.00264  -0.00408
  93  C 6   py       0.00000   0.00000   0.00000   0.00000   0.00000   0.00000
  94  C 6   pz       0.00016   0.00068   0.00276  -0.00295   0.00119   0.00053
  95  C 6   dxx     -0.00068  -0.00627   0.00249  -0.00617  -0.00007  -0.00030
  96  C 6   dxy      0.00000   0.00000   0.00000   0.00000   0.00000   0.00000
  97  C 6   dyy     -0.00082  -0.00647   0.00257  -0.00637  -0.00006  -0.00012
  98  C 6   dxz      0.00002   0.00002  -0.00003   0.00010   0.00000  -0.00016
  99  C 6   dyz      0.00000   0.00000   0.00000   0.00000   0.00000   0.00000
 100  C 6   dzz     -0.00075  -0.00653   0.00247  -0.00593  -0.00009  -0.00024
 101  H 6   s       -0.00003  -0.00028   0.00022  -0.00029   0.00007   0.00004
 102  H 6   s        0.00031   0.00109   0.00059   0.00030   0.00054   0.00074
                         7         8         9        10        11        12
 eigenvalues:         -1.089    -0.981    -0.980    -0.836    -0.828    -0.744
   1  C 1   s       -0.09300  -0.12970   0.00000   0.00000   0.10324  -0.01842
   2  C 1   s        0.17975   0.25763   0.00001   0.00001  -0.21403   0.03829
   3  C 1   px       0.00000   0.00000   0.11531   0.20867   0.00001   0.00000
   4  C 1   py       0.00000   0.00000   0.00000   0.00000   0.00000   0.00000
   5  C 1   pz      -0.06706  -0.03940   0.00000   0.00000  -0.05011   0.19808
   6  C 1   s        0.10193   0.18352   0.00000   0.00001  -0.17284   0.06812
   7  C 1   px       0.00000   0.00000   0.01517   0.04570   0.00000   0.00000
   8  C 1   py       0.00000   0.00000   0.00000   0.00000   0.00000   0.00000
   9  C 1   pz      -0.00297   0.00693   0.00000   0.00000  -0.04362   0.06505
  10  C 1   dxx      0.00272   0.00282   0.00000   0.00000   0.00600   0.00447
  11  C 1   dxy      0.00000   0.00000   0.00000   0.00000   0.00000   0.00000
  12  C 1   dyy     -0.01025  -0.01244   0.00000   0.00000   0.00810  -0.00079
  13  C 1   dxz      0.00000   0.00000  -0.01097  -0.01066   0.00000   0.00000
  14  C 1   dyz      0.00000   0.00000   0.00000   0.00000   0.00000   0.00000
  15  C 1   dzz      0.00312   0.00135   0.00000   0.00000  -0.00261  -0.00070
  16  H 1   s        0.03153   0.06736   0.00000   0.00000  -0.10005   0.10864
  17  H 1   s       -0.00107   0.00360   0.00000   0.00000  -0.02007   0.04796
  18  C 2   s       -0.09351  -0.06858  -0.11261  -0.09159  -0.04994  -0.00982
  19  C 2   s        0.18302   0.13840   0.22911   0.19403   0.10619   0.02130
  20  C 2   px      -0.05686  -0.06624   0.01153  -0.00135   0.13172   0.17249
  21  C 2   py       0.00000   0.00000   0.00000   0.00000   0.00000   0.00000
  22  C 2   pz      -0.02870   0.08012  -0.05916   0.11789  -0.14361   0.11260
  23  C 2   s        0.11710   0.11080   0.17191   0.16661   0.09132   0.03588
  24  C 2   px      -0.01168  -0.00664   0.00972   0.02715   0.04677   0.06948
  25  C 2   py       0.00000   0.00000   0.00000   0.00000   0.00000   0.00000
  26  C 2   pz      -0.00684   0.00780  -0.00650   0.03805  -0.02863   0.04077
  27  C 2   dxx      0.00366   0.00829  -0.00238   0.00413  -0.00576   0.00160
  28  C 2   dxy      0.00000   0.00000   0.00000   0.00000   0.00000   0.00000
  29  C 2   dyy     -0.01056  -0.00654  -0.01075  -0.00704  -0.00399  -0.00006
  30  C 2   dxz     -0.00019  -0.00525   0.00187   0.00156   0.00670  -0.00235
  31  C 2   dyz      0.00000   0.00000   0.00000   0.00000   0.00000   0.00000
  32  C 2   dzz      0.00339  -0.00648   0.00697  -0.00790   0.00515   0.00219
  33  H 2   s        0.03380   0.03682   0.06603   0.09369   0.05897   0.10628
  34  H 2   s        0.00330   0.00351   0.00640   0.01823   0.01399   0.04388
  35  C 3   s       -0.09351  -0.06858   0.11260   0.09159  -0.04993  -0.00982
  36  C 3   s        0.18303   0.13841  -0.22910  -0.19403   0.10618   0.02130
  37  C 3   px       0.05686   0.06624   0.01154  -0.00134  -0.13172  -0.17250
  38  C 3   py       0.00000   0.00000   0.00000   0.00000   0.00000   0.00000
  39  C 3   pz      -0.02870   0.08013   0.05916  -0.11789  -0.14361   0.11262
  40  C 3   s        0.11711   0.11081  -0.17191  -0.16661   0.09132   0.03587
  41  C 3   px       0.01168   0.00664   0.00972   0.02715  -0.04677  -0.06948
  42  C 3   py       0.00000   0.00000   0.00000   0.00000   0.00000   0.00000
  43  C 3   pz      -0.00684   0.00780   0.00650  -0.03805  -0.02864   0.04077
  44  C 3   dxx      0.00366   0.00829   0.00238  -0.00413  -0.00576   0.00160
  45  C 3   dxy      0.00000   0.00000   0.00000   0.00000   0.00000   0.00000
  46  C 3   dyy     -0.01056  -0.00654   0.01075   0.00704  -0.00399  -0.00006
  47  C 3   dxz      0.00019   0.00525   0.00187   0.00156  -0.00670   0.00235
  48  C 3   dyz      0.00000   0.00000   0.00000   0.00000   0.00000   0.00000
  49  C 3   dzz      0.00339  -0.00648  -0.00697   0.00790   0.00515   0.00219
  50  H 3   s        0.03380   0.03683  -0.06603  -0.09369   0.05897   0.10629
  51  H 3   s        0.00330   0.00351  -0.00640  -0.01823   0.01399   0.04389
  52  C 4   s       -0.09350   0.06860   0.11259  -0.09161  -0.04992  -0.00982
  53  C 4   s        0.18301  -0.13845  -0.22908   0.19406   0.10616   0.02129
  54  C 4   px       0.05685  -0.06625   0.01154   0.00133  -0.13172  -0.17246
  55  C 4   py       0.00000   0.00000   0.00000   0.00000   0.00000   0.00000
  56  C 4   pz       0.02872   0.08011  -0.05918  -0.11786   0.14363  -0.11261
  57  C 4   s        0.11709  -0.11083  -0.17189   0.16664   0.09130   0.03586
  58  C 4   px       0.01168  -0.00664   0.00972  -0.02715  -0.04677  -0.06947
  59  C 4   py       0.00000   0.00000   0.00000   0.00000   0.00000   0.00000
  60  C 4   pz       0.00684   0.00779  -0.00650  -0.03804   0.02864  -0.04076
  61  C 4   dxx      0.00366  -0.00829   0.00238   0.00413  -0.00576   0.00160
  62  C 4   dxy      0.00000   0.00000   0.00000   0.00000   0.00000   0.00000
  63  C 4   dyy     -0.01056   0.00654   0.01075  -0.00705  -0.00399  -0.00006
  64  C 4   dxz     -0.00018   0.00525  -0.00187   0.00156   0.00670  -0.00235
  65  C 4   dyz      0.00000   0.00000   0.00000   0.00000   0.00000   0.00000
  66  C 4   dzz      0.00339   0.00648  -0.00697  -0.00789   0.00515   0.00219
  67  H 4   s        0.03380  -0.03683  -0.06602   0.09369   0.05896   0.10626
  68  H 4   s        0.00330  -0.00351  -0.00640   0.01823   0.01399   0.04388
  69  C 5   s       -0.09297   0.12971  -0.00001   0.00000   0.10324  -0.01843
  70  C 5   s        0.17971  -0.25765   0.00001  -0.00001  -0.21404   0.03831
  71  C 5   px       0.00000   0.00000   0.11529  -0.20866   0.00001   0.00000
  72  C 5   py       0.00000   0.00000   0.00000   0.00000   0.00000   0.00000
  73  C 5   pz       0.06705  -0.03942   0.00000   0.00000   0.05010  -0.19804
  74  C 5   s        0.10189  -0.18353   0.00001  -0.00001  -0.17284   0.06814
  75  C 5   px       0.00000   0.00000   0.01516  -0.04570   0.00000   0.00000
  76  C 5   py       0.00000   0.00000   0.00000   0.00000   0.00000   0.00000
  77  C 5   pz       0.00297   0.00693   0.00000   0.00000   0.04361  -0.06503
  78  C 5   dxx      0.00272  -0.00282   0.00000   0.00000   0.00600   0.00447
  79  C 5   dxy      0.00000   0.00000   0.00000   0.00000   0.00000   0.00000
  80  C 5   dyy     -0.01024   0.01244   0.00000   0.00000   0.00810  -0.00079
  81  C 5   dxz      0.00000   0.00000   0.01097  -0.01066   0.00000   0.00000
  82  C 5   dyz      0.00000   0.00000   0.00000   0.00000   0.00000   0.00000
  83  C 5   dzz      0.00312  -0.00135   0.00000   0.00000  -0.00260  -0.00070
  84  H 5   s        0.03152  -0.06736   0.00000   0.00000  -0.10005   0.10862
  85  H 5   s       -0.00106  -0.00360   0.00000   0.00000  -0.02007   0.04795
  86  C 6   s       -0.09349   0.06860  -0.11260   0.09161  -0.04993  -0.00982
  87  C 6   s        0.18299  -0.13844   0.22908  -0.19406   0.10617   0.02130
  88  C 6   px      -0.05685   0.06625   0.01153   0.00134   0.13171   0.17244
  89  C 6   py       0.00000   0.00000   0.00000   0.00000   0.00000   0.00000
  90  C 6   pz       0.02871   0.08010   0.05917   0.11786   0.14362  -0.11260
  91  C 6   s        0.11708  -0.11082   0.17189  -0.16663   0.09131   0.03587
  92  C 6   px      -0.01168   0.00664   0.00971  -0.02715   0.04676   0.06947
  93  C 6   py       0.00000   0.00000   0.00000   0.00000   0.00000   0.00000
  94  C 6   pz       0.00684   0.00779   0.00650   0.03804   0.02864  -0.04076
  95  C 6   dxx      0.00366  -0.00829  -0.00238  -0.00413  -0.00576   0.00160
  96  C 6   dxy      0.00000   0.00000   0.00000   0.00000   0.00000   0.00000
  97  C 6   dyy     -0.01056   0.00654  -0.01075   0.00705  -0.00399  -0.00006
  98  C 6   dxz      0.00018  -0.00525  -0.00187   0.00156  -0.00670   0.00235
  99  C 6   dyz      0.00000   0.00000   0.00000   0.00000   0.00000   0.00000
 100  C 6   dzz      0.00339   0.00648   0.00697   0.00789   0.00515   0.00219
 101  H 6   s        0.03379  -0.03683   0.06602  -0.09369   0.05896   0.10625
 102  H 6   s        0.00330  -0.00351   0.00640  -0.01823   0.01399   0.04387
                        13        14        15        16        17        18
 eigenvalues:         -0.685    -0.678    -0.648    -0.644    -0.602    -0.575
   1  C 1   s        0.06463   0.00000   0.00022   0.00000   0.00000   0.00000
   2  C 1   s       -0.13497   0.00000  -0.00554   0.00000   0.00000   0.00000
   3  C 1   px       0.00001   0.27500   0.00001  -0.08462   0.00000  -0.25921
   4  C 1   py       0.00000   0.00000   0.00000   0.00000   0.22456   0.00000
   5  C 1   pz      -0.07853   0.00001   0.33046   0.00001   0.00000   0.00000
   6  C 1   s       -0.17294   0.00000  -0.00628   0.00000   0.00000   0.00000
   7  C 1   px       0.00000   0.07843   0.00000   0.01350   0.00000  -0.08829
   8  C 1   py       0.00000   0.00000   0.00000   0.00000   0.12088   0.00000
   9  C 1   pz      -0.03135   0.00000   0.11536   0.00000   0.00000   0.00000
  10  C 1   dxx      0.01468   0.00000  -0.00412   0.00000   0.00000   0.00000
  11  C 1   dxy      0.00000   0.00000   0.00000   0.00000   0.00000   0.00000
  12  C 1   dyy      0.00468   0.00000  -0.00053   0.00000   0.00000   0.00000
  13  C 1   dxz      0.00000  -0.00606   0.00000   0.01348   0.00000   0.01269
  14  C 1   dyz      0.00000   0.00000   0.00000   0.00000  -0.01190   0.00000
  15  C 1   dzz     -0.01052   0.00000   0.01129   0.00000   0.00000   0.00000
  16  H 1   s       -0.10736   0.00001   0.18814   0.00001   0.00000   0.00000
  17  H 1   s       -0.05121   0.00000   0.12477   0.00001   0.00000   0.00000
  18  C 2   s       -0.05810  -0.00251   0.01892   0.01694   0.00000   0.00090
  19  C 2   s        0.12255   0.00425  -0.04264  -0.04213   0.00000  -0.01025
  20  C 2   px       0.15488  -0.13713   0.14975   0.22053   0.00000   0.25038
  21  C 2   py       0.00000   0.00000   0.00000   0.00000   0.22843   0.00000
  22  C 2   pz       0.06368   0.24475   0.00934   0.16957   0.00000  -0.01769
  23  C 2   s        0.16668   0.00482  -0.05947  -0.05878   0.00000   0.02977
  24  C 2   px       0.05527  -0.04438   0.03595   0.09275   0.00000   0.08314
  25  C 2   py       0.00000   0.00000   0.00000   0.00000   0.12932   0.00000
  26  C 2   pz       0.02466   0.07985   0.03777   0.04296   0.00000  -0.01580
  27  C 2   dxx      0.00510   0.00279  -0.00586   0.01280   0.00000   0.00860
  28  C 2   dxy      0.00000   0.00000   0.00000   0.00000  -0.01000   0.00000
  29  C 2   dyy     -0.00431  -0.00019   0.00097   0.00035   0.00000  -0.00106
  30  C 2   dxz      0.01525  -0.00235   0.00586   0.00271   0.00000   0.01896
  31  C 2   dyz      0.00000   0.00000   0.00000   0.00000  -0.00534   0.00000
  32  C 2   dzz     -0.00764  -0.00450   0.01021  -0.00595   0.00000  -0.00101
  33  H 2   s        0.15017   0.00001   0.05697   0.14336   0.00000   0.14777
  34  H 2   s        0.07825  -0.00060   0.04107   0.10008   0.00000   0.12390
  35  C 3   s       -0.05810   0.00251   0.01892  -0.01695   0.00000  -0.00090
  36  C 3   s        0.12255  -0.00425  -0.04264   0.04213   0.00000   0.01025
  37  C 3   px      -0.15489  -0.13712  -0.14976   0.22052   0.00000   0.25037
  38  C 3   py       0.00000   0.00000   0.00000   0.00000   0.22843   0.00000
  39  C 3   pz       0.06368  -0.24476   0.00934  -0.16958   0.00000   0.01770
  40  C 3   s        0.16668  -0.00482  -0.05947   0.05878   0.00000  -0.02977
  41  C 3   px      -0.05527  -0.04438  -0.03595   0.09274   0.00000   0.08314
  42  C 3   py       0.00000   0.00000   0.00000   0.00000   0.12932   0.00000
  43  C 3   pz       0.02465  -0.07985   0.03777  -0.04296   0.00000   0.01580
  44  C 3   dxx      0.00510  -0.00279  -0.00586  -0.01280   0.00000  -0.00860
  45  C 3   dxy      0.00000   0.00000   0.00000   0.00000   0.01000   0.00000
  46  C 3   dyy     -0.00431   0.00019   0.00097  -0.00035   0.00000   0.00106
  47  C 3   dxz     -0.01525  -0.00235  -0.00586   0.00272   0.00000   0.01895
  48  C 3   dyz      0.00000   0.00000   0.00000   0.00000  -0.00534   0.00000
  49  C 3   dzz     -0.00764   0.00450   0.01021   0.00595   0.00000   0.00101
  50  H 3   s        0.15018  -0.00001   0.05697  -0.14336   0.00000  -0.14775
  51  H 3   s        0.07825   0.00059   0.04108  -0.10008   0.00000  -0.12390
  52  C 4   s        0.05810   0.00252  -0.01892  -0.01694   0.00000   0.00091
  53  C 4   s       -0.12256  -0.00427   0.04264   0.04212   0.00000  -0.01026
  54  C 4   px       0.15492  -0.13709   0.14979   0.22047   0.00000  -0.25043
  55  C 4   py       0.00000   0.00000   0.00000   0.00000   0.22840   0.00000
  56  C 4   pz       0.06366   0.24477   0.00939   0.16959   0.00000   0.01769
  57  C 4   s       -0.16669  -0.00484   0.05946   0.05879   0.00000   0.02976
  58  C 4   px       0.05529  -0.04437   0.03596   0.09273   0.00000  -0.08316
  59  C 4   py       0.00000   0.00000   0.00000   0.00000   0.12930   0.00000
  60  C 4   pz       0.02465   0.07985   0.03778   0.04297   0.00000   0.01580
  61  C 4   dxx     -0.00510  -0.00279   0.00586  -0.01280   0.00000   0.00860
  62  C 4   dxy      0.00000   0.00000   0.00000   0.00000   0.01000   0.00000
  63  C 4   dyy      0.00431   0.00019  -0.00097  -0.00035   0.00000  -0.00106
  64  C 4   dxz     -0.01525   0.00235  -0.00587  -0.00271   0.00000   0.01896
  65  C 4   dyz      0.00000   0.00000   0.00000   0.00000   0.00534   0.00000
  66  C 4   dzz      0.00764   0.00450  -0.01021   0.00595   0.00000  -0.00101
  67  H 4   s       -0.15019  -0.00004  -0.05700  -0.14333   0.00000   0.14779
  68  H 4   s       -0.07825   0.00058  -0.04109  -0.10005   0.00000   0.12392
  69  C 5   s       -0.06463   0.00000  -0.00022   0.00000   0.00000   0.00000
  70  C 5   s        0.13499   0.00000   0.00554   0.00000   0.00000   0.00000
  71  C 5   px      -0.00001   0.27499  -0.00001  -0.08456   0.00000   0.25926
  72  C 5   py       0.00000   0.00000   0.00000   0.00000   0.22450   0.00000
  73  C 5   pz      -0.07849  -0.00001   0.33046  -0.00001   0.00000   0.00001
  74  C 5   s        0.17294   0.00000   0.00627   0.00000   0.00000   0.00000
  75  C 5   px       0.00000   0.07842   0.00000   0.01352   0.00000   0.08830
  76  C 5   py       0.00000   0.00000   0.00000   0.00000   0.12084   0.00000
  77  C 5   pz      -0.03134   0.00000   0.11536   0.00000   0.00000   0.00000
  78  C 5   dxx     -0.01468   0.00000   0.00411   0.00000   0.00000   0.00000
  79  C 5   dxy      0.00000   0.00000   0.00000   0.00000   0.00000   0.00000
  80  C 5   dyy     -0.00468   0.00000   0.00053   0.00000   0.00000   0.00000
  81  C 5   dxz      0.00000   0.00606   0.00000  -0.01347   0.00000   0.01269
  82  C 5   dyz      0.00000   0.00000   0.00000   0.00000   0.01190   0.00000
  83  C 5   dzz      0.01052   0.00000  -0.01129   0.00000   0.00000   0.00000
  84  H 5   s        0.10734   0.00001  -0.18814   0.00001   0.00000   0.00000
  85  H 5   s        0.05119   0.00000  -0.12476   0.00001   0.00000   0.00000
  86  C 6   s        0.05810  -0.00252  -0.01892   0.01694   0.00000  -0.00091
  87  C 6   s       -0.12257   0.00426   0.04264  -0.04212   0.00000   0.01026
  88  C 6   px      -0.15491  -0.13710  -0.14978   0.22048   0.00000  -0.25045
  89  C 6   py       0.00000   0.00000   0.00000   0.00000   0.22840   0.00000
  90  C 6   pz       0.06367  -0.24476   0.00939  -0.16958   0.00000  -0.01769
  91  C 6   s       -0.16670   0.00484   0.05946  -0.05879   0.00000  -0.02976
  92  C 6   px      -0.05528  -0.04437  -0.03596   0.09273   0.00000  -0.08317
  93  C 6   py       0.00000   0.00000   0.00000   0.00000   0.12930   0.00000
  94  C 6   pz       0.02465  -0.07985   0.03778  -0.04296   0.00000  -0.01580
  95  C 6   dxx     -0.00510   0.00279   0.00586   0.01280   0.00000  -0.00860
  96  C 6   dxy      0.00000   0.00000   0.00000   0.00000  -0.01000   0.00000
  97  C 6   dyy      0.00431  -0.00019  -0.00097   0.00035   0.00000   0.00106
  98  C 6   dxz      0.01525   0.00235   0.00586  -0.00271   0.00000   0.01896
  99  C 6   dyz      0.00000   0.00000   0.00000   0.00000   0.00534   0.00000
 100  C 6   dzz      0.00764  -0.00450  -0.01021  -0.00595   0.00000   0.00101
 101  H 6   s       -0.15018   0.00004  -0.05699   0.14333   0.00000  -0.14779
 102  H 6   s       -0.07825  -0.00058  -0.04108   0.10005   0.00000  -0.12392
                        19        20        21        22        23        24
 eigenvalues:         -0.567    -0.487    -0.494    -0.257    -0.226    -0.100
   1  C 1   s       -0.00320   0.00000   0.00000   0.00000   0.00000  -0.03451
   2  C 1   s       -0.00161   0.00000   0.00000   0.00000   0.00000   0.07682
   3  C 1   px       0.00000   0.00000   0.00000   0.00000   0.00000   0.00000
   4  C 1   py       0.00000  -0.33613  -0.00001   0.00000   0.37796   0.00000
   5  C 1   pz       0.24323   0.00000   0.00000   0.00000   0.00000   0.10578
   6  C 1   s        0.04422   0.00000   0.00000   0.00000   0.00000   0.42881
   7  C 1   px       0.00000   0.00000   0.00000   0.00000   0.00000   0.00001
   8  C 1   py       0.00000  -0.22025  -0.00001   0.00001   0.46797   0.00000
   9  C 1   pz       0.08340   0.00000   0.00000   0.00000   0.00000   0.24195
  10  C 1   dxx     -0.01537   0.00000   0.00000   0.00000   0.00000   0.01659
  11  C 1   dxy      0.00000   0.00000   0.01845   0.03003   0.00000   0.00000
  12  C 1   dyy     -0.00116   0.00000   0.00000   0.00000   0.00000   0.00310
  13  C 1   dxz      0.00000   0.00000   0.00000   0.00000   0.00000   0.00000
  14  C 1   dyz      0.00000   0.00904   0.00000   0.00000   0.00825   0.00000
  15  C 1   dzz      0.02275   0.00000   0.00000   0.00000   0.00000  -0.02389
  16  H 1   s        0.17607   0.00000   0.00000   0.00000   0.00000  -0.07534
  17  H 1   s        0.14623   0.00000   0.00000   0.00000   0.00000  -0.63648
  18  C 2   s        0.00248   0.00000   0.00000   0.00000   0.00000  -0.04043
  19  C 2   s       -0.00116   0.00000   0.00000   0.00000   0.00000   0.08904
  20  C 2   px       0.01210   0.00000   0.00000   0.00000   0.00000   0.10929
  21  C 2   py       0.00000  -0.18676   0.30729   0.33524  -0.18616   0.00000
  22  C 2   pz      -0.25251   0.00000   0.00000   0.00000   0.00000   0.06086
  23  C 2   s       -0.01468   0.00000   0.00000   0.00000   0.00000   0.50922
  24  C 2   px       0.00624   0.00000   0.00000   0.00000   0.00000   0.25397
  25  C 2   py       0.00000  -0.12352   0.20367   0.37374  -0.23478   0.00000
  26  C 2   pz      -0.09297   0.00000   0.00000   0.00000   0.00000   0.14359
  27  C 2   dxx     -0.01460   0.00000   0.00000   0.00000   0.00000  -0.01498
  28  C 2   dxy      0.00000   0.01173   0.00014  -0.00022  -0.01850   0.00000
  29  C 2   dyy      0.00060   0.00000   0.00000   0.00000   0.00000   0.00331
  30  C 2   dxz     -0.00451   0.00000   0.00000   0.00000   0.00000  -0.02094
  31  C 2   dyz      0.00000  -0.01260  -0.01251   0.01616   0.02282   0.00000
  32  C 2   dzz      0.01216   0.00000   0.00000   0.00000   0.00000   0.00699
  33  H 2   s       -0.08350   0.00000   0.00000   0.00000   0.00000  -0.08350
  34  H 2   s       -0.06981   0.00000   0.00000   0.00000   0.00000  -0.73732
  35  C 3   s        0.00248   0.00000   0.00000   0.00000   0.00000  -0.04044
  36  C 3   s       -0.00116   0.00000   0.00000   0.00000   0.00000   0.08904
  37  C 3   px      -0.01211   0.00000   0.00000   0.00000   0.00000  -0.10931
  38  C 3   py       0.00000  -0.18676  -0.30728  -0.33526  -0.18616   0.00000
  39  C 3   pz      -0.25249   0.00000   0.00000   0.00000   0.00000   0.06087
  40  C 3   s       -0.01468   0.00000   0.00000   0.00000   0.00000   0.50928
  41  C 3   px      -0.00624   0.00000   0.00000   0.00000   0.00000  -0.25400
  42  C 3   py       0.00000  -0.12352  -0.20367  -0.37376  -0.23479   0.00000
  43  C 3   pz      -0.09296   0.00000   0.00000   0.00000   0.00000   0.14362
  44  C 3   dxx     -0.01460   0.00000   0.00000   0.00000   0.00000  -0.01498
  45  C 3   dxy      0.00000  -0.01173   0.00014  -0.00022   0.01850   0.00000
  46  C 3   dyy      0.00060   0.00000   0.00000   0.00000   0.00000   0.00331
  47  C 3   dxz      0.00451   0.00000   0.00000   0.00000   0.00000   0.02095
  48  C 3   dyz      0.00000  -0.01260   0.01251  -0.01616   0.02282   0.00000
  49  C 3   dzz      0.01216   0.00000   0.00000   0.00000   0.00000   0.00699
  50  H 3   s       -0.08350   0.00000   0.00000   0.00000   0.00000  -0.08351
  51  H 3   s       -0.06981   0.00000   0.00000   0.00000   0.00000  -0.73741
  52  C 4   s        0.00248   0.00000   0.00000   0.00000   0.00000  -0.04043
  53  C 4   s       -0.00118   0.00000   0.00000   0.00000   0.00000   0.08903
  54  C 4   px      -0.01211   0.00000   0.00000   0.00000   0.00000  -0.10929
  55  C 4   py       0.00000   0.18680  -0.30731   0.33523  -0.18613   0.00000
  56  C 4   pz       0.25250   0.00000   0.00000   0.00000   0.00000  -0.06084
  57  C 4   s       -0.01470   0.00000   0.00000   0.00000   0.00000   0.50920
  58  C 4   px      -0.00624   0.00000   0.00000   0.00000   0.00000  -0.25394
  59  C 4   py       0.00000   0.12354  -0.20370   0.37374  -0.23474   0.00000
  60  C 4   pz       0.09297   0.00000   0.00000   0.00000   0.00000  -0.14360
  61  C 4   dxx     -0.01460   0.00000   0.00000   0.00000   0.00000  -0.01497
  62  C 4   dxy      0.00000   0.01173   0.00014   0.00022   0.01850   0.00000
  63  C 4   dyy      0.00060   0.00000   0.00000   0.00000   0.00000   0.00331
  64  C 4   dxz     -0.00451   0.00000   0.00000   0.00000   0.00000  -0.02095
  65  C 4   dyz      0.00000  -0.01260  -0.01251  -0.01616  -0.02282   0.00000
  66  C 4   dzz      0.01216   0.00000   0.00000   0.00000   0.00000   0.00699
  67  H 4   s       -0.08350   0.00000   0.00000   0.00000   0.00000  -0.08349
  68  H 4   s       -0.06981   0.00000   0.00000   0.00000   0.00000  -0.73729
  69  C 5   s       -0.00321   0.00000   0.00000   0.00000   0.00000  -0.03450
  70  C 5   s       -0.00161   0.00000   0.00000   0.00000   0.00000   0.07681
  71  C 5   px       0.00000   0.00000   0.00000   0.00000   0.00000   0.00000
  72  C 5   py       0.00000   0.33617   0.00000   0.00000   0.37792   0.00000
  73  C 5   pz      -0.24327   0.00000   0.00000   0.00000   0.00000  -0.10574
  74  C 5   s        0.04423   0.00000   0.00000   0.00000   0.00000   0.42868
  75  C 5   px       0.00000   0.00000   0.00000   0.00000   0.00000   0.00001
  76  C 5   py       0.00000   0.22027  -0.00001  -0.00001   0.46792   0.00000
  77  C 5   pz      -0.08342   0.00000   0.00000   0.00000   0.00000  -0.24187
  78  C 5   dxx     -0.01537   0.00000   0.00000   0.00000   0.00000   0.01658
  79  C 5   dxy      0.00000   0.00000   0.01845  -0.03003   0.00000   0.00000
  80  C 5   dyy     -0.00116   0.00000   0.00000   0.00000   0.00000   0.00310
  81  C 5   dxz      0.00000   0.00000   0.00000   0.00000   0.00000   0.00000
  82  C 5   dyz      0.00000   0.00904   0.00000   0.00000  -0.00825   0.00000
  83  C 5   dzz      0.02276   0.00000   0.00000   0.00000   0.00000  -0.02389
  84  H 5   s        0.17610   0.00000   0.00000   0.00000   0.00000  -0.07533
  85  H 5   s        0.14625   0.00000   0.00000   0.00000   0.00000  -0.63631
  86  C 6   s        0.00248   0.00000   0.00000   0.00000   0.00000  -0.04043
  87  C 6   s       -0.00118   0.00000   0.00000   0.00000   0.00000   0.08902
  88  C 6   px       0.01211   0.00000   0.00000   0.00000   0.00000   0.10927
  89  C 6   py       0.00000   0.18680   0.30731  -0.33521  -0.18612   0.00000
  90  C 6   pz       0.25252   0.00000   0.00000   0.00000   0.00000  -0.06084
  91  C 6   s       -0.01470   0.00000   0.00000   0.00000   0.00000   0.50912
  92  C 6   px       0.00624   0.00000   0.00000   0.00000   0.00000   0.25390
  93  C 6   py       0.00000   0.12354   0.20370  -0.37373  -0.23474   0.00000
  94  C 6   pz       0.09297   0.00000   0.00000   0.00000   0.00000  -0.14357
  95  C 6   dxx     -0.01460   0.00000   0.00000   0.00000   0.00000  -0.01497
  96  C 6   dxy      0.00000  -0.01173   0.00014   0.00022  -0.01850   0.00000
  97  C 6   dyy      0.00060   0.00000   0.00000   0.00000   0.00000   0.00331
  98  C 6   dxz      0.00451   0.00000   0.00000   0.00000   0.00000   0.02094
  99  C 6   dyz      0.00000  -0.01260   0.01251   0.01616  -0.02282   0.00000
 100  C 6   dzz      0.01216   0.00000   0.00000   0.00000   0.00000   0.00699
 101  H 6   s       -0.08351   0.00000   0.00000   0.00000   0.00000  -0.08349
 102  H 6   s       -0.06982   0.00000   0.00000   0.00000   0.00000  -0.73719
                        25        26
 eigenvalues:         -0.083    -0.044
   1  C 1   s        0.00000   0.00001
   2  C 1   s        0.00000  -0.00001
   3  C 1   px       0.00000  -0.03793
   4  C 1   py      -0.31266   0.00000
   5  C 1   pz       0.00000  -0.00003
   6  C 1   s        0.00000  -0.00013
   7  C 1   px       0.00000   0.13788
   8  C 1   py      -0.50832   0.00000
   9  C 1   pz       0.00000  -0.00006
  10  C 1   dxx      0.00000   0.00000
  11  C 1   dxy      0.00000   0.00000
  12  C 1   dyy      0.00000   0.00000
  13  C 1   dxz      0.00000  -0.01375
  14  C 1   dyz     -0.01564   0.00000
  15  C 1   dzz      0.00000   0.00000
  16  H 1   s        0.00000   0.00001
  17  H 1   s        0.00000   0.00015
  18  C 2   s        0.00000   0.03218
  19  C 2   s        0.00000  -0.04419
  20  C 2   px       0.00000  -0.20927
  21  C 2   py       0.30435   0.00000
  22  C 2   pz       0.00000  -0.09095
  23  C 2   s        0.00000  -0.72884
  24  C 2   px       0.00000  -0.40211
  25  C 2   py       0.47058   0.00000
  26  C 2   pz       0.00000  -0.29344
  27  C 2   dxx      0.00000   0.00206
  28  C 2   dxy      0.01550   0.00000
  29  C 2   dyy      0.00000   0.00051
  30  C 2   dxz      0.00000   0.01663
  31  C 2   dyz      0.00568   0.00000
  32  C 2   dzz      0.00000  -0.00074
  33  H 2   s        0.00000   0.06452
  34  H 2   s        0.00000   1.01579
  35  C 3   s        0.00000  -0.03218
  36  C 3   s        0.00000   0.04418
  37  C 3   px       0.00000  -0.20925
  38  C 3   py       0.30434   0.00000
  39  C 3   pz       0.00000   0.09093
  40  C 3   s        0.00000   0.72878
  41  C 3   px       0.00000  -0.40204
  42  C 3   py       0.47056   0.00000
  43  C 3   pz       0.00000   0.29344
  44  C 3   dxx      0.00000  -0.00206
  45  C 3   dxy     -0.01550   0.00000
  46  C 3   dyy      0.00000  -0.00051
  47  C 3   dxz      0.00000   0.01662
  48  C 3   dyz      0.00568   0.00000
  49  C 3   dzz      0.00000   0.00073
  50  H 3   s        0.00000  -0.06451
  51  H 3   s        0.00000  -1.01566
  52  C 4   s        0.00000  -0.03216
  53  C 4   s        0.00000   0.04414
  54  C 4   px       0.00000  -0.20922
  55  C 4   py      -0.30435   0.00000
  56  C 4   pz       0.00000  -0.09095
  57  C 4   s        0.00000   0.72844
  58  C 4   px       0.00000  -0.40197
  59  C 4   py      -0.47060   0.00000
  60  C 4   pz       0.00000  -0.29347
  61  C 4   dxx      0.00000  -0.00206
  62  C 4   dxy      0.01550   0.00000
  63  C 4   dyy      0.00000  -0.00051
  64  C 4   dxz      0.00000  -0.01663
  65  C 4   dyz      0.00568   0.00000
  66  C 4   dzz      0.00000   0.00074
  67  H 4   s        0.00000  -0.06450
  68  H 4   s        0.00000  -1.01547
  69  C 5   s        0.00000   0.00000
  70  C 5   s        0.00000  -0.00001
  71  C 5   px       0.00000  -0.03796
  72  C 5   py       0.31270   0.00000
  73  C 5   pz       0.00000  -0.00001
  74  C 5   s        0.00000  -0.00001
  75  C 5   px       0.00000   0.13777
  76  C 5   py       0.50838   0.00000
  77  C 5   pz       0.00000  -0.00001
  78  C 5   dxx      0.00000   0.00000
  79  C 5   dxy      0.00000   0.00000
  80  C 5   dyy      0.00000   0.00000
  81  C 5   dxz      0.00000   0.01376
  82  C 5   dyz     -0.01564   0.00000
  83  C 5   dzz      0.00000   0.00000
  84  H 5   s        0.00000   0.00000
  85  H 5   s        0.00000  -0.00001
  86  C 6   s        0.00000   0.03215
  87  C 6   s        0.00000  -0.04414
  88  C 6   px       0.00000  -0.20921
  89  C 6   py      -0.30436   0.00000
  90  C 6   pz       0.00000   0.09093
  91  C 6   s        0.00000  -0.72838
  92  C 6   px       0.00000  -0.40195
  93  C 6   py      -0.47061   0.00000
  94  C 6   pz       0.00000   0.29345
  95  C 6   dxx      0.00000   0.00206
  96  C 6   dxy     -0.01550   0.00000
  97  C 6   dyy      0.00000   0.00051
  98  C 6   dxz      0.00000  -0.01663
  99  C 6   dyz      0.00568   0.00000
 100  C 6   dzz      0.00000  -0.00074
 101  H 6   s        0.00000   0.06450
 102  H 6   s        0.00000   1.01540
 
          Ground-State Mulliken Net Atomic Charges

     Atom                 Charge (a.u.)
  ----------------------------------------
      1 C                    -0.098258
      2 H                     0.237148
      3 C                    -0.068132
      4 H                     0.248710
      5 C                    -0.068117
      6 H                     0.248707
      7 C                    -0.068171
      8 H                     0.248709
      9 C                    -0.098272
     10 H                     0.237153
     11 C                    -0.068190
     12 H                     0.248714
  ----------------------------------------
  Sum of atomic charges =     1.000000

 -----------------------------------------------------------------
                    Cartesian Multipole Moments
 -----------------------------------------------------------------
    Charge (ESU x 10^10)
                 4.8032
    Dipole Moment (Debye)
         X      -0.0001      Y       0.0000      Z      -6.9119
       Tot       6.9119
    Quadrupole Moments (Debye-Ang)
        XX     -18.6380     XY       0.0000     YY     -34.8829
        XZ       0.0002     YZ       0.0000     ZZ     -10.9965
    Octapole Moments (Debye-Ang^2)
       XXX      -0.0001    XXY       0.0000    XYY      -0.0001
       YYY       0.0000    XXZ      26.8224    XYZ       0.0000
       YYZ      50.2001    XZZ      -0.0002    YZZ       0.0000
       ZZZ      76.1036
    Hexadecapole Moments (Debye-Ang^3)
      XXXX    -198.5998   XXXY       0.0000   XXYY     -51.6615
      XYYY       0.0000   YYYY     -34.2695   XXXZ       0.0000
      XXYZ       0.0000   XYYZ       0.0001   YYYZ       0.0000
      XXZZ    -108.1352   XYZZ       0.0000   YYZZ    -129.4555
      XZZZ       0.0003   YZZZ       0.0000   ZZZZ    -461.2949
 -----------------------------------------------------------------
Archival summary:
1\1\node09\SP\ROProcedureUnspecified\6-31G*\C6H6(1+,2)\rkanters\2009Tue72009\0\\#,ROProcedureUnspecified,6-31G*,\\1,2\C\H,1,1.08467\C,1,1.39129,2,120.799\H,3,1.08637,1,120.613,2,0,0\C,1,1.39129,2,120.799,3,-180,0\H,5,1.08637,1,120.613,2,0,0\C,3,1.45341,1,120.799,2,180,0\H,7,1.08637,3,118.588,1,180,0\C,7,1.39129,3,120.799,1,0,0\H,9,1.08467,7,120.799,3,180,0\C,9,1.39129,7,118.401,3,0,0\H,11,1.08637,9,120.613,7,180,0\\\@

 Total job time:  34.38s(wall), 37.43s(cpu) 
 Tue Apr  7 07:49:02 2009

        *************************************************************
        *                                                           *
        *  Thank you very much for using Q-Chem.  Have a nice day.  *
        *                                                           *
        *************************************************************


0 sent ACK to 0 
now end server 0 ... 
