Process 0 of 1 is on node08 - thread support 1
initial socket setup ...start
initial socket setup ...done 
now start server 0 ... 
                  Welcome to Q-Chem
     A Quantum Leap Into The Future Of Chemistry

 Y. Shao, L. Fusti-Molnar, Y. Jung, J. Kussmann, C. Ochsenfeld,
 S. T. Brown, A. T. B. Gilbert, L. V. Slipchenko,S. V. Levchenko,
 D. P. O'Neill, R. A. DiStasio Jr., R. C. Lochan, T. Wang,
 G. J. O. Beran, N. A. Besley, J. M. Herbert, C. Y. Lin,
 T. Van Voorhis, S. H. Chien, A. Sodt, R. P. Steele, 
 V. A. Rassolov, P. E. Maslen, P. P. Korambath, R. D. Adamson,
 B. Austin, J. Baker, E. F. C. Byrd, H. Dachsel, R. J. Doerksen,
 A. Dreuw, B. D. Dunietz, A. D. Dutoi, T. R. Furlani,
 S. R. Gwaltney, A. Heyden, S. Hirata, C.-P. Hsu, G. Kedziora,
 R. Z. Khaliullin, P. Klunzinger, A. M. Lee, M. S. Lee, W. Liang,
 I. Lotan, N. Nair, B. Peters, E. I. Proynov, P. A. Pieniazek, 
 Y. M. Rhee, J. Ritchie, E. Rosta, C. D. Sherrill, 
 A. C. Simmonett, J. E. Subotnik, H. L. Woodcock III,
 W. Zhang, A. T. Bell, A. K. Chakraborty, D. M. Chipman,
 F. J. Keil, A. Warshel, W. J. Hehre, H. F. Schaefer III,
 J. Kong, A. I. Krylov, P. M. W. Gill, M. Head-Gordon,
 Q-Chem, Version 3.1, Q-Chem, Inc., Pittsburgh, PA (2007).

 Additional authors for Version 3.1: 
 Z. Gan, Y. Zhao, N. E. Schultz, D. Truhlar, E. Epifanovsky and M. Oana.

 Additional authors for Version 3.2: 
 R. Baer, B. R. Brooks, D. Casanova, J.-D. Chai, C.-L. Cheng, 
 C. Cramer, D. Crittenden, A. Ghysels, G. Hawkins, E. G. Hohenstein, 
 C. Kelley, W. Kurlancheek, D. Liotard, E. Livshits, P. Manohar, 
 A. Marenich, D. Neuhauser, R. Olson, M. A. Rohrdanz, K. S. Thanthiriwatte, 
 A. J. W. Thom, V. Vanovschi, C. F. Williams, Q. Wu and Z.-Q. You. 


 Intel X86 EM64T Linux Version

 Q-chem begins on Wed Mar  4 18:03:35 2009  

 Parallel job on  1  processors
Processing $rem in /usr/local/qchem3201/config/preferences.

theFileMan(): MAXOPENFILES=974 MAX_SUB_FILE_NUM=16
Maximum size of a physical file is 2.0 GB, maximum size of a tmp-file is 32.0 GB


--------------------------------------------------------------
User input:
--------------------------------------------------------------
$comment
  Benzene+ ROB3LYP/6-31G*
$end

$molecule
1 2
 1   0.000000000   0.000000000  -0.019769085
 6   0.000000000   0.000000000   1.066960921
 6   0.000000000  -0.000000000   3.856612746
 6   0.000000000  -1.207954674   1.764373877
 6   0.000000000   1.207954674   1.764373877
 6   0.000000000   1.207954674   3.159199790
 6   0.000000000  -1.207954674   3.159199790
 1   0.000000000  -2.149090467   1.221008874
 1   0.000000000   2.149090467   1.221008874
 1   0.000000000   2.149090467   3.702564793
 1   0.000000000  -2.149090467   3.702564793
 1   0.000000000  -0.000000000   4.943342752
$end

$rem
  jobtype             OPT
  exchange            B3LYP
  basis               6-31G*
  unrestricted        FALSE
  scf_algorithm       DM
  max_scf_cycles      100

  print_general_basis TRUE
  print_orbitals      TRUE
$end

--------------------------------------------------------------
 Writing REM_CC_EA            0
 ----------------------------------------------------
       Standard Nuclear Orientation (Angstroms)
    I     Atom         X            Y            Z
 ----------------------------------------------------
    1      H       2.481556     0.000000     0.000000
    2      C       1.394826     0.000000     0.000000
    3      C      -1.394826     0.000000     0.000000
    4      C       0.697413     1.207955     0.000000
    5      C       0.697413    -1.207955     0.000000
    6      C      -0.697413    -1.207955     0.000000
    7      C      -0.697413     1.207955     0.000000
    8      H       1.240778     2.149090     0.000000
    9      H       1.240778    -2.149090     0.000000
   10      H      -1.240778    -2.149090     0.000000
   11      H      -1.240778     2.149090     0.000000
   12      H      -2.481556     0.000000     0.000000
 ----------------------------------------------------
 Molecular Point Group                 D6h   NOp = 24
 Largest Abelian Subgroup              D2h   NOp =  8
 Nuclear Repulsion Energy =   203.4161024897 hartrees
 There are       21 alpha and       20 beta electrons

 Q-Chem warning in module snoman.F, line  300, PE  0:

 turning symmetry off for DFT job

 Requested basis set is 6-31G(d)
Basis set in general basis input format:
-----------------------------------------------------------------------
$basis
H    0
S    3    1.000000
   1.87311370E+01    3.34946000E-02 
   2.82539370E+00    2.34726950E-01 
   6.40121700E-01    8.13757330E-01 
S    1    1.000000
   1.61277800E-01    1.00000000E+00 
****
C    0
S    6    1.000000
   3.04752490E+03    1.83470000E-03 
   4.57369510E+02    1.40373000E-02 
   1.03948690E+02    6.88426000E-02 
   2.92101550E+01    2.32184400E-01 
   9.28666300E+00    4.67941300E-01 
   3.16392700E+00    3.62312000E-01 
SP   3    1.000000
   7.86827240E+00   -1.19332400E-01   6.89991000E-02 
   1.88128850E+00   -1.60854200E-01   3.16424000E-01 
   5.44249300E-01    1.14345640E+00   7.44308300E-01 
SP   1    1.000000
   1.68714400E-01    1.00000000E+00   1.00000000E+00 
D    1    1.000000
   8.00000000E-01    1.00000000E+00 
****
C    0
S    6    1.000000
   3.04752490E+03    1.83470000E-03 
   4.57369510E+02    1.40373000E-02 
   1.03948690E+02    6.88426000E-02 
   2.92101550E+01    2.32184400E-01 
   9.28666300E+00    4.67941300E-01 
   3.16392700E+00    3.62312000E-01 
SP   3    1.000000
   7.86827240E+00   -1.19332400E-01   6.89991000E-02 
   1.88128850E+00   -1.60854200E-01   3.16424000E-01 
   5.44249300E-01    1.14345640E+00   7.44308300E-01 
SP   1    1.000000
   1.68714400E-01    1.00000000E+00   1.00000000E+00 
D    1    1.000000
   8.00000000E-01    1.00000000E+00 
****
C    0
S    6    1.000000
   3.04752490E+03    1.83470000E-03 
   4.57369510E+02    1.40373000E-02 
   1.03948690E+02    6.88426000E-02 
   2.92101550E+01    2.32184400E-01 
   9.28666300E+00    4.67941300E-01 
   3.16392700E+00    3.62312000E-01 
SP   3    1.000000
   7.86827240E+00   -1.19332400E-01   6.89991000E-02 
   1.88128850E+00   -1.60854200E-01   3.16424000E-01 
   5.44249300E-01    1.14345640E+00   7.44308300E-01 
SP   1    1.000000
   1.68714400E-01    1.00000000E+00   1.00000000E+00 
D    1    1.000000
   8.00000000E-01    1.00000000E+00 
****
C    0
S    6    1.000000
   3.04752490E+03    1.83470000E-03 
   4.57369510E+02    1.40373000E-02 
   1.03948690E+02    6.88426000E-02 
   2.92101550E+01    2.32184400E-01 
   9.28666300E+00    4.67941300E-01 
   3.16392700E+00    3.62312000E-01 
SP   3    1.000000
   7.86827240E+00   -1.19332400E-01   6.89991000E-02 
   1.88128850E+00   -1.60854200E-01   3.16424000E-01 
   5.44249300E-01    1.14345640E+00   7.44308300E-01 
SP   1    1.000000
   1.68714400E-01    1.00000000E+00   1.00000000E+00 
D    1    1.000000
   8.00000000E-01    1.00000000E+00 
****
C    0
S    6    1.000000
   3.04752490E+03    1.83470000E-03 
   4.57369510E+02    1.40373000E-02 
   1.03948690E+02    6.88426000E-02 
   2.92101550E+01    2.32184400E-01 
   9.28666300E+00    4.67941300E-01 
   3.16392700E+00    3.62312000E-01 
SP   3    1.000000
   7.86827240E+00   -1.19332400E-01   6.89991000E-02 
   1.88128850E+00   -1.60854200E-01   3.16424000E-01 
   5.44249300E-01    1.14345640E+00   7.44308300E-01 
SP   1    1.000000
   1.68714400E-01    1.00000000E+00   1.00000000E+00 
D    1    1.000000
   8.00000000E-01    1.00000000E+00 
****
C    0
S    6    1.000000
   3.04752490E+03    1.83470000E-03 
   4.57369510E+02    1.40373000E-02 
   1.03948690E+02    6.88426000E-02 
   2.92101550E+01    2.32184400E-01 
   9.28666300E+00    4.67941300E-01 
   3.16392700E+00    3.62312000E-01 
SP   3    1.000000
   7.86827240E+00   -1.19332400E-01   6.89991000E-02 
   1.88128850E+00   -1.60854200E-01   3.16424000E-01 
   5.44249300E-01    1.14345640E+00   7.44308300E-01 
SP   1    1.000000
   1.68714400E-01    1.00000000E+00   1.00000000E+00 
D    1    1.000000
   8.00000000E-01    1.00000000E+00 
****
H    0
S    3    1.000000
   1.87311370E+01    3.34946000E-02 
   2.82539370E+00    2.34726950E-01 
   6.40121700E-01    8.13757330E-01 
S    1    1.000000
   1.61277800E-01    1.00000000E+00 
****
H    0
S    3    1.000000
   1.87311370E+01    3.34946000E-02 
   2.82539370E+00    2.34726950E-01 
   6.40121700E-01    8.13757330E-01 
S    1    1.000000
   1.61277800E-01    1.00000000E+00 
****
H    0
S    3    1.000000
   1.87311370E+01    3.34946000E-02 
   2.82539370E+00    2.34726950E-01 
   6.40121700E-01    8.13757330E-01 
S    1    1.000000
   1.61277800E-01    1.00000000E+00 
****
H    0
S    3    1.000000
   1.87311370E+01    3.34946000E-02 
   2.82539370E+00    2.34726950E-01 
   6.40121700E-01    8.13757330E-01 
S    1    1.000000
   1.61277800E-01    1.00000000E+00 
****
H    0
S    3    1.000000
   1.87311370E+01    3.34946000E-02 
   2.82539370E+00    2.34726950E-01 
   6.40121700E-01    8.13757330E-01 
S    1    1.000000
   1.61277800E-01    1.00000000E+00 
****
$end
-----------------------------------------------------------------------
 There are 36 shells and 102 basis functions

Total QAlloc Memory Limit   2000 MB
Mega-Array Size        61 MB
MEM_STATIC part        62 MB
 A cutoff of  1.0D-12 yielded    648 shell pairs
 There are   5397 function pairs
Evaluating contribution to one-electron hamiltonian from nuclear
 Smallest overlap matrix eigenvalue = 5.15E-04
 Multipole matrices computed through 2nd order

  Scale SEOQF with 1.000000e-01/1.000000e-01/1.000000e+00

 Standard Electronic Orientation quadrupole field applied
 Nucleus-field energy     =     0.0000000057 hartrees
 Constructing guess Fock matrix from core Hamiltonian
 Applying Wolfsberg-Helmholtz approximation
 A restricted hybrid HF-DFT SCF calculation will be
 performed using direct minimization
 Exchange:     0.2000 Hartree-Fock + 0.0800 Slater + 0.7200 Becke
 Correlation:  0.8100 LYP + 0.1900 VWN1RPA
 Using SG-1 standard quadrature grid
 SCF converges when RMS gradient is below 1.0E-08
 ---------------------------------------
  Cycle       Energy        RMS Gradient
 ---------------------------------------
    1    -229.2817110518      1.83E-01
    2    -231.3828666092      7.81E-02
    3    -230.8922223588      6.72E-02Energy rises: line search
    4    -231.7806083148      3.53E-02
    5    -231.8997099394      9.64E-03
    6    -231.9065708033      7.63E-03
    7    -231.9143000596      2.46E-03
    8    -231.9143263554      1.11E-03BFGS subspace was reset
    9    -231.9146897164      1.78E-03
   10    -231.9143232219      2.59E-03Energy rises: line search
   11    -231.9150259143      1.30E-04
   12    -231.9150277336      5.31E-05
   13    -231.9150279896      1.43E-05
   14    -231.9150280082      7.58E-06
   15    -231.9150280143      1.77E-07BFGS subspace was reset
   16    -231.9150280149      2.73E-07
   17    -231.9150280135      4.60E-07Energy rises: line search
   18    -231.9150280143      1.83E-07BFGS subspace was reset
   19    -231.9150280158      1.05E-07
   20    -231.9150280140      2.58E-07Energy rises: line search
   21    -231.9150280140      4.78E-08BFGS subspace was reset
   22    -231.9150280139      3.53E-08
   23    -231.9150280147      8.36E-08
   24    -231.9150280145      1.11E-08Energy rises: line search
   25    -231.9150280146      3.38E-08BFGS subspace was reset
   26    -231.9150280139      9.45E-09 Convergence criterion met
 ---------------------------------------
 SCF time:  CPU 82.17 s  wall 76.06 s
 Analysis of SCF Wavefunction
 
 --------------------------------------------------------------
             Orbital Energies (a.u.) and Symmetries
 --------------------------------------------------------------
 Warning : Irrep of orbital(   1) could not be determined
 Warning : Irrep of orbital(   2) could not be determined
 Warning : Irrep of orbital(   3) could not be determined
 Warning : Irrep of orbital(   4) could not be determined
 Warning : Irrep of orbital(   5) could not be determined
 Warning : Irrep of orbital(   6) could not be determined
 Warning : Irrep of orbital(  12) could not be determined
 Warning : Irrep of orbital(  13) could not be determined
 Warning : Irrep of orbital(  14) could not be determined
 Warning : Irrep of orbital(  15) could not be determined
 Warning : Irrep of orbital(  16) could not be determined
 Warning : Irrep of orbital(  26) could not be determined
 Warning : Irrep of orbital(  27) could not be determined
 Warning : Irrep of orbital(  30) could not be determined
 Warning : Irrep of orbital(  39) could not be determined
 Warning : Irrep of orbital(  40) could not be determined
 Warning : Irrep of orbital(  41) could not be determined
 Warning : Irrep of orbital(  42) could not be determined
 Warning : Irrep of orbital(  43) could not be determined
 Warning : Irrep of orbital(  44) could not be determined
 Warning : Irrep of orbital(  50) could not be determined
 Warning : Irrep of orbital(  51) could not be determined
 Warning : Irrep of orbital(  52) could not be determined
 Warning : Irrep of orbital(  53) could not be determined
 Warning : Irrep of orbital(  54) could not be determined
 Warning : Irrep of orbital(  57) could not be determined
 Warning : Irrep of orbital(  65) could not be determined
 Warning : Irrep of orbital(  68) could not be determined
 Warning : Irrep of orbital(  69) could not be determined
 Warning : Irrep of orbital(  80) could not be determined
 Warning : Irrep of orbital(  81) could not be determined
 Warning : Irrep of orbital(  82) could not be determined
 Warning : Irrep of orbital(  83) could not be determined
 Warning : Irrep of orbital(  84) could not be determined
 Warning : Irrep of orbital(  85) could not be determined
 Warning : Irrep of orbital(  86) could not be determined
 
 Alpha MOs, Restricted
 -- Doubly Occupied --           
-10.446 -10.446 -10.445 -10.445 -10.413 -10.413  -1.099  -0.996
  0 xxx   0 xxx   0 xxx   0 xxx   0 xxx   0 xxx   1 A1g   1 E1u                
 -0.975  -0.836  -0.835  -0.749  -0.684  -0.681  -0.656  -0.639
  1 E1u   1 E2g   1 E2g   0 xxx   0 xxx   0 xxx   0 xxx   0 xxx                
 -0.609  -0.572  -0.570  -0.481
  1 A2u   2 E2g   2 E2g   1 E1g                                                
 -- Singly Occupied (Occupied) --
 -0.507
  1 E1g                                                                        
 -- Virtual --                   
 -0.248  -0.230  -0.102  -0.076  -0.049  -0.039  -0.015  -0.007
  1 E2u   1 E2u   2 A1g   1 B2g   0 xxx   0 xxx   3 E2g   3 E2g                
  0.008   0.086   0.088   0.097   0.100   0.259   0.295   0.313
  0 xxx   4 E2g   4 E2g   2 E1u   2 E1u   1 B2u   2 A2u   3 A1g                
  0.319   0.344   0.369   0.367   0.376   0.381   0.384   0.396
  1 B1u   0 xxx   0 xxx   0 xxx   0 xxx   0 xxx   0 xxx   3 E1u                
  0.404   0.438   0.452   0.528   0.627   0.627   0.637   0.653
  3 E1u   2 E2u   2 E2u   2 B2g   0 xxx   0 xxx   0 xxx   0 xxx                
  0.667   0.718   0.719   0.731   0.744   0.860   0.871   0.914
  0 xxx   4 E1u   4 E1u   0 xxx   1 A2g   5 E2g   5 E2g   5 E1u                
  0.922   0.988   1.009   1.145   1.215   1.218   1.231   1.242
  5 E1u   2 B1u   1 B1g   0 xxx   6 E2g   6 E2g   0 xxx   0 xxx                
  1.256   1.276   1.507   1.551   1.622   1.679   1.730   1.745
  2 E1g   2 E1g   4 A1g   2 B2u   5 A1g   3 B1u   6 E1u   6 E1u                
  1.822   1.827   1.898   1.900   1.910   1.919   2.051   2.069
  7 E2g   7 E2g   0 xxx   0 xxx   0 xxx   0 xxx   0 xxx   0 xxx                
  2.076   2.297   2.311   2.410   2.462   2.473   2.477   2.489
  0 xxx   8 E2g   8 E2g   1 A1u   9 E2g   9 E2g   7 E1u   7 E1u                
  2.521   2.780   3.175   3.841   3.864   3.884   4.080   4.097
  4 B1u   2 A2g   5 B1u   6 A1g   8 E1u   8 E1u  10 E2g  10 E2g                
  4.427
  6 B1u                                                                        
 
 Beta MOs, Restricted
 -- Doubly Occupied --           
-10.443 -10.443 -10.442 -10.442 -10.413 -10.413  -1.088  -0.980
  0 xxx   0 xxx   0 xxx   0 xxx   0 xxx   0 xxx   1 A1g   1 E1u                
 -0.971  -0.829  -0.827  -0.746  -0.679  -0.677  -0.652  -0.638
  1 E1u   1 E2g   1 E2g   0 xxx   0 xxx   0 xxx   0 xxx   0 xxx                
 -0.578  -0.569  -0.566  -0.470
  1 A2u   2 E2g   2 E2g   1 E1g                                                
 -- Singly Occupied (Vacant) --  
 -0.421
  1 E1g                                                                        
 -- Virtual --                   
 -0.215  -0.212  -0.100  -0.055  -0.047  -0.038  -0.008  -0.004
  1 E2u   1 E2u   2 A1g   1 B2g   0 xxx   0 xxx   3 E2g   3 E2g                
  0.012   0.090   0.091   0.100   0.104   0.261   0.308   0.316
  0 xxx   4 E2g   4 E2g   2 E1u   2 E1u   1 B2u   2 A2u   3 A1g                
  0.331   0.347   0.376   0.386   0.383   0.383   0.390   0.407
  1 B1u   0 xxx   0 xxx   0 xxx   0 xxx   0 xxx   0 xxx   3 E1u                
  0.407   0.454   0.458   0.538   0.630   0.629   0.639   0.657
  3 E1u   2 E2u   2 E2u   2 B2g   0 xxx   0 xxx   0 xxx   0 xxx                
  0.668   0.722   0.725   0.733   0.746   0.868   0.875   0.920
  0 xxx   4 E1u   4 E1u   0 xxx   1 A2g   5 E2g   5 E2g   5 E1u                
  0.923   0.992   1.024   1.159   1.220   1.224   1.248   1.252
  5 E1u   2 B1u   1 B1g   0 xxx   6 E2g   6 E2g   0 xxx   0 xxx                
  1.275   1.283   1.525   1.553   1.624   1.685   1.737   1.748
  2 E1g   2 E1g   4 A1g   2 B2u   5 A1g   3 B1u   6 E1u   6 E1u                
  1.827   1.834   1.914   1.920   1.919   1.925   2.071   2.078
  7 E2g   7 E2g   0 xxx   0 xxx   0 xxx   0 xxx   0 xxx   0 xxx                
  2.088   2.313   2.317   2.424   2.466   2.475   2.481   2.491
  0 xxx   8 E2g   8 E2g   1 A1u   9 E2g   9 E2g   7 E1u   7 E1u                
  2.534   2.782   3.179   3.848   3.874   3.887   4.090   4.100
  4 B1u   2 A2g   5 B1u   6 A1g   8 E1u   8 E1u  10 E2g  10 E2g                
  4.433
  6 B1u                                                                        
 --------------------------------------------------------------
 

                        RESTRICTED (RHF) MOLECULAR ORBITAL COEFFICIENTS
                         1         2         3         4         5         6
 eigenvalues:        -10.446   -10.446   -10.445   -10.445   -10.413   -10.413
   1  H 1   s       -0.00001   0.00000  -0.00012   0.00000  -0.00036  -0.00026
   2  H 1   s        0.00047  -0.00001  -0.00131   0.00000   0.00001   0.00087
   3  C 1   s        0.00872  -0.00012  -0.00886   0.00003   0.70227   0.70165
   4  C 1   s       -0.00014   0.00000   0.00031   0.00000   0.03550   0.03509
   5  C 1   px       0.00026   0.00000  -0.00019   0.00000  -0.00045  -0.00038
   6  C 1   py       0.00000  -0.00028   0.00000   0.00022   0.00000   0.00000
   7  C 1   pz       0.00000   0.00000   0.00000   0.00000   0.00000   0.00000
   8  C 1   s        0.00460  -0.00006  -0.01311   0.00005  -0.01668  -0.01095
   9  C 1   px      -0.00195   0.00003   0.00668  -0.00002   0.00560   0.00210
  10  C 1   py       0.00002   0.00142   0.00000  -0.00139   0.00000   0.00000
  11  C 1   pz       0.00000   0.00000   0.00000   0.00000   0.00000   0.00000
  12  C 1   dxx     -0.00026   0.00000   0.00039   0.00000  -0.00657  -0.00660
  13  C 1   dxy      0.00000   0.00004   0.00000  -0.00012   0.00000   0.00000
  14  C 1   dyy     -0.00044   0.00001   0.00056   0.00000  -0.00645  -0.00643
  15  C 1   dxz      0.00000   0.00000   0.00000   0.00000   0.00000   0.00000
  16  C 1   dyz      0.00000   0.00000   0.00000   0.00000   0.00000   0.00000
  17  C 1   dzz     -0.00027   0.00000   0.00033   0.00000  -0.00668  -0.00682
  18  C 2   s        0.00872  -0.00012   0.00886  -0.00003  -0.70172   0.70220
  19  C 2   s       -0.00014   0.00000  -0.00031   0.00000  -0.03547   0.03512
  20  C 2   px      -0.00026   0.00000  -0.00019   0.00000  -0.00045   0.00039
  21  C 2   py       0.00000  -0.00028   0.00000  -0.00022   0.00000   0.00000
  22  C 2   pz       0.00000   0.00000   0.00000   0.00000   0.00000   0.00000
  23  C 2   s        0.00460  -0.00006   0.01311  -0.00005   0.01667  -0.01096
  24  C 2   px       0.00195  -0.00003   0.00668  -0.00002   0.00560  -0.00211
  25  C 2   py       0.00002   0.00142   0.00000   0.00139   0.00000   0.00000
  26  C 2   pz       0.00000   0.00000   0.00000   0.00000   0.00000   0.00000
  27  C 2   dxx     -0.00026   0.00000  -0.00039   0.00000   0.00657  -0.00660
  28  C 2   dxy      0.00000  -0.00004   0.00000  -0.00012   0.00000   0.00000
  29  C 2   dyy     -0.00044   0.00001  -0.00056   0.00000   0.00644  -0.00643
  30  C 2   dxz      0.00000   0.00000   0.00000   0.00000   0.00000   0.00000
  31  C 2   dyz      0.00000   0.00000   0.00000   0.00000   0.00000   0.00000
  32  C 2   dzz     -0.00027   0.00000  -0.00033   0.00000   0.00667  -0.00683
  33  C 3   s        0.50285   0.48961  -0.49829  -0.49472  -0.00665  -0.00646
  34  C 3   s        0.02483   0.02433  -0.02549  -0.02494  -0.00086  -0.00070
  35  C 3   px      -0.00003  -0.00003   0.00044   0.00041  -0.00011  -0.00005
  36  C 3   py      -0.00009  -0.00018   0.00019   0.00020   0.00024   0.00026
  37  C 3   pz       0.00000   0.00000   0.00000   0.00000   0.00000   0.00000
  38  C 3   s       -0.00546  -0.00486   0.01830   0.00989   0.00977   0.00336
  39  C 3   px      -0.00028  -0.00032  -0.00427  -0.00180  -0.00158   0.00024
  40  C 3   py       0.00086   0.00075  -0.00578  -0.00153  -0.00472  -0.00163
  41  C 3   pz       0.00000   0.00000   0.00000   0.00000   0.00000   0.00000
  42  C 3   dxx     -0.00489  -0.00478   0.00430   0.00429  -0.00024  -0.00012
  43  C 3   dxy     -0.00002   0.00000   0.00007   0.00007   0.00010   0.00013
  44  C 3   dyy     -0.00479  -0.00473   0.00450   0.00457  -0.00024  -0.00019
  45  C 3   dxz      0.00000   0.00000   0.00000   0.00000   0.00000   0.00000
  46  C 3   dyz      0.00000   0.00000   0.00000   0.00000   0.00000   0.00000
  47  C 3   dzz     -0.00499  -0.00479   0.00462   0.00472  -0.00012  -0.00007
  48  C 4   s        0.48955  -0.50291  -0.49476   0.49825  -0.00665  -0.00646
  49  C 4   s        0.02417  -0.02499  -0.02531   0.02512  -0.00086  -0.00070
  50  C 4   px      -0.00003   0.00003   0.00044  -0.00041  -0.00011  -0.00005
  51  C 4   py       0.00009  -0.00018  -0.00019   0.00020  -0.00024  -0.00026
  52  C 4   pz       0.00000   0.00000   0.00000   0.00000   0.00000   0.00000
  53  C 4   s       -0.00533   0.00500   0.01822  -0.01002   0.00977   0.00336
  54  C 4   px      -0.00028   0.00033  -0.00426   0.00183  -0.00158   0.00024
  55  C 4   py      -0.00084   0.00078   0.00577  -0.00157   0.00472   0.00163
  56  C 4   pz       0.00000   0.00000   0.00000   0.00000   0.00000   0.00000
  57  C 4   dxx     -0.00476   0.00491   0.00427  -0.00432  -0.00024  -0.00012
  58  C 4   dxy      0.00002   0.00000  -0.00006   0.00007  -0.00010  -0.00013
  59  C 4   dyy     -0.00466   0.00486   0.00446  -0.00460  -0.00024  -0.00019
  60  C 4   dxz      0.00000   0.00000   0.00000   0.00000   0.00000   0.00000
  61  C 4   dyz      0.00000   0.00000   0.00000   0.00000   0.00000   0.00000
  62  C 4   dzz     -0.00486   0.00492   0.00458  -0.00476  -0.00012  -0.00007
  63  C 5   s        0.48955  -0.50290   0.49476  -0.49825   0.00665  -0.00646
  64  C 5   s        0.02417  -0.02499   0.02531  -0.02512   0.00086  -0.00070
  65  C 5   px       0.00003  -0.00003   0.00044  -0.00041  -0.00011   0.00005
  66  C 5   py       0.00009  -0.00018   0.00019  -0.00020   0.00024  -0.00026
  67  C 5   pz       0.00000   0.00000   0.00000   0.00000   0.00000   0.00000
  68  C 5   s       -0.00533   0.00500  -0.01822   0.01002  -0.00977   0.00336
  69  C 5   px       0.00028  -0.00033  -0.00426   0.00183  -0.00158  -0.00023
  70  C 5   py      -0.00084   0.00078  -0.00577   0.00157  -0.00472   0.00164
  71  C 5   pz       0.00000   0.00000   0.00000   0.00000   0.00000   0.00000
  72  C 5   dxx     -0.00476   0.00491  -0.00427   0.00432   0.00024  -0.00012
  73  C 5   dxy     -0.00002   0.00000  -0.00006   0.00007  -0.00010   0.00013
  74  C 5   dyy     -0.00466   0.00486  -0.00446   0.00460   0.00024  -0.00019
  75  C 5   dxz      0.00000   0.00000   0.00000   0.00000   0.00000   0.00000
  76  C 5   dyz      0.00000   0.00000   0.00000   0.00000   0.00000   0.00000
  77  C 5   dzz     -0.00486   0.00492  -0.00458   0.00476   0.00012  -0.00007
  78  C 6   s        0.50284   0.48961   0.49829   0.49472   0.00665  -0.00646
  79  C 6   s        0.02483   0.02433   0.02549   0.02494   0.00086  -0.00070
  80  C 6   px       0.00003   0.00003   0.00044   0.00041  -0.00011   0.00005
  81  C 6   py      -0.00009  -0.00018  -0.00019  -0.00020  -0.00024   0.00026
  82  C 6   pz       0.00000   0.00000   0.00000   0.00000   0.00000   0.00000
  83  C 6   s       -0.00546  -0.00486  -0.01830  -0.00989  -0.00977   0.00336
  84  C 6   px       0.00028   0.00032  -0.00427  -0.00180  -0.00158  -0.00023
  85  C 6   py       0.00086   0.00075   0.00578   0.00153   0.00472  -0.00164
  86  C 6   pz       0.00000   0.00000   0.00000   0.00000   0.00000   0.00000
  87  C 6   dxx     -0.00489  -0.00478  -0.00430  -0.00429   0.00024  -0.00012
  88  C 6   dxy      0.00002   0.00000   0.00007   0.00007   0.00010  -0.00013
  89  C 6   dyy     -0.00479  -0.00473  -0.00450  -0.00457   0.00024  -0.00019
  90  C 6   dxz      0.00000   0.00000   0.00000   0.00000   0.00000   0.00000
  91  C 6   dyz      0.00000   0.00000   0.00000   0.00000   0.00000   0.00000
  92  C 6   dzz     -0.00499  -0.00479  -0.00462  -0.00472   0.00012  -0.00007
  93  H 2   s       -0.00021  -0.00020   0.00031   0.00017   0.00008  -0.00001
  94  H 2   s        0.00082   0.00067   0.00059  -0.00047   0.00093   0.00028
  95  H 3   s       -0.00021   0.00021   0.00031  -0.00018   0.00008  -0.00001
  96  H 3   s        0.00081  -0.00069   0.00059   0.00047   0.00093   0.00028
  97  H 4   s       -0.00021   0.00021  -0.00031   0.00018  -0.00008  -0.00001
  98  H 4   s        0.00081  -0.00069  -0.00059  -0.00047  -0.00093   0.00028
  99  H 5   s       -0.00021  -0.00020  -0.00031  -0.00017  -0.00008  -0.00001
 100  H 5   s        0.00082   0.00067  -0.00059   0.00047  -0.00093   0.00028
 101  H 6   s       -0.00001   0.00000   0.00012   0.00000   0.00036  -0.00026
 102  H 6   s        0.00047  -0.00001   0.00131   0.00000   0.00000   0.00087
                         7         8         9        10        11        12
 eigenvalues:         -1.099    -0.996    -0.975    -0.836    -0.835    -0.749
   1  H 1   s        0.02956   0.00000   0.06929   0.09615   0.00000   0.10660
   2  H 1   s        0.00177   0.00000   0.00517   0.01701   0.00000   0.04355
   3  C 1   s       -0.08990   0.00000  -0.13012  -0.10487   0.00000  -0.02013
   4  C 1   s        0.17197   0.00000   0.25844   0.21710   0.00000   0.04299
   5  C 1   px      -0.06666   0.00000  -0.03477   0.04237   0.00000   0.19326
   6  C 1   py       0.00000   0.11049   0.00000   0.00000  -0.20928   0.00000
   7  C 1   pz       0.00000   0.00000   0.00000   0.00000   0.00000   0.00000
   8  C 1   s        0.10165   0.00000   0.18792   0.17108   0.00000   0.06537
   9  C 1   px      -0.01038   0.00000   0.00544   0.04416   0.00000   0.07003
  10  C 1   py       0.00000   0.01170   0.00000   0.00000  -0.04624   0.00000
  11  C 1   pz       0.00000   0.00000   0.00000   0.00000   0.00000   0.00000
  12  C 1   dxx      0.00352   0.00000   0.00116   0.00210   0.00000  -0.00140
  13  C 1   dxy      0.00000  -0.01123   0.00000   0.00000   0.01040   0.00000
  14  C 1   dyy      0.00323   0.00000   0.00322  -0.00608   0.00000   0.00437
  15  C 1   dxz      0.00000   0.00000   0.00000   0.00000   0.00000   0.00000
  16  C 1   dyz      0.00000   0.00000   0.00000   0.00000   0.00000   0.00000
  17  C 1   dzz     -0.01023   0.00000  -0.01235  -0.00828   0.00000  -0.00069
  18  C 2   s       -0.08990   0.00000   0.13012  -0.10487   0.00000  -0.02013
  19  C 2   s        0.17197   0.00000  -0.25844   0.21710   0.00000   0.04299
  20  C 2   px       0.06666   0.00000  -0.03477  -0.04237   0.00000  -0.19326
  21  C 2   py       0.00000   0.11049   0.00000   0.00000   0.20928   0.00000
  22  C 2   pz       0.00000   0.00000   0.00000   0.00000   0.00000   0.00000
  23  C 2   s        0.10165   0.00000  -0.18792   0.17108   0.00000   0.06537
  24  C 2   px       0.01038   0.00000   0.00544  -0.04416   0.00000  -0.07003
  25  C 2   py       0.00000   0.01170   0.00000   0.00000   0.04624   0.00000
  26  C 2   pz       0.00000   0.00000   0.00000   0.00000   0.00000   0.00000
  27  C 2   dxx      0.00352   0.00000  -0.00116   0.00210   0.00000  -0.00140
  28  C 2   dxy      0.00000   0.01123   0.00000   0.00000   0.01040   0.00000
  29  C 2   dyy      0.00323   0.00000  -0.00322  -0.00608   0.00000   0.00437
  30  C 2   dxz      0.00000   0.00000   0.00000   0.00000   0.00000   0.00000
  31  C 2   dyz      0.00000   0.00000   0.00000   0.00000   0.00000   0.00000
  32  C 2   dzz     -0.01023   0.00000   0.01235  -0.00828   0.00000  -0.00069
  33  C 3   s       -0.09563  -0.11426  -0.06766   0.04929   0.09065  -0.01033
  34  C 3   s        0.18648   0.23107   0.13633  -0.10500  -0.19127   0.02219
  35  C 3   px      -0.03936  -0.07180   0.08259   0.14840  -0.12181   0.12071
  36  C 3   py      -0.05527   0.00884  -0.06492  -0.13607   0.00319   0.16935
  37  C 3   pz       0.00000   0.00000   0.00000   0.00000   0.00000   0.00000
  38  C 3   s        0.11359   0.16898   0.10820  -0.08458  -0.16316   0.04172
  39  C 3   px      -0.00583  -0.00503   0.01014   0.02544  -0.04099   0.04128
  40  C 3   py      -0.00843   0.00898  -0.00538  -0.04995  -0.02765   0.06501
  41  C 3   pz       0.00000   0.00000   0.00000   0.00000   0.00000   0.00000
  42  C 3   dxx      0.00362   0.00705  -0.00671  -0.00548   0.00817   0.00193
  43  C 3   dxy      0.00045   0.00205  -0.00508  -0.00592  -0.00175  -0.00312
  44  C 3   dyy      0.00291  -0.00311   0.00842   0.00712  -0.00433   0.00207
  45  C 3   dxz      0.00000   0.00000   0.00000   0.00000   0.00000   0.00000
  46  C 3   dyz      0.00000   0.00000   0.00000   0.00000   0.00000   0.00000
  47  C 3   dzz     -0.01074  -0.01094  -0.00625   0.00385   0.00680   0.00000
  48  C 4   s       -0.09563   0.11426  -0.06766   0.04929  -0.09065  -0.01033
  49  C 4   s        0.18648  -0.23107   0.13633  -0.10500   0.19127   0.02219
  50  C 4   px      -0.03936   0.07180   0.08259   0.14840   0.12181   0.12071
  51  C 4   py       0.05527   0.00884   0.06492   0.13607   0.00319  -0.16935
  52  C 4   pz       0.00000   0.00000   0.00000   0.00000   0.00000   0.00000
  53  C 4   s        0.11359  -0.16898   0.10820  -0.08458   0.16316   0.04172
  54  C 4   px      -0.00583   0.00503   0.01014   0.02544   0.04099   0.04128
  55  C 4   py       0.00843   0.00898   0.00538   0.04995  -0.02765  -0.06501
  56  C 4   pz       0.00000   0.00000   0.00000   0.00000   0.00000   0.00000
  57  C 4   dxx      0.00362  -0.00705  -0.00671  -0.00548  -0.00817   0.00193
  58  C 4   dxy     -0.00045   0.00205   0.00508   0.00592  -0.00175   0.00312
  59  C 4   dyy      0.00291   0.00311   0.00842   0.00712   0.00433   0.00207
  60  C 4   dxz      0.00000   0.00000   0.00000   0.00000   0.00000   0.00000
  61  C 4   dyz      0.00000   0.00000   0.00000   0.00000   0.00000   0.00000
  62  C 4   dzz     -0.01074   0.01094  -0.00625   0.00385  -0.00680   0.00000
  63  C 5   s       -0.09563   0.11426   0.06766   0.04929   0.09065  -0.01033
  64  C 5   s        0.18648  -0.23107  -0.13633  -0.10500  -0.19127   0.02219
  65  C 5   px       0.03936  -0.07180   0.08259  -0.14840   0.12181  -0.12071
  66  C 5   py       0.05527   0.00884  -0.06492   0.13607  -0.00319  -0.16935
  67  C 5   pz       0.00000   0.00000   0.00000   0.00000   0.00000   0.00000
  68  C 5   s        0.11359  -0.16898  -0.10820  -0.08458  -0.16316   0.04172
  69  C 5   px       0.00583  -0.00503   0.01014  -0.02544   0.04099  -0.04128
  70  C 5   py       0.00843   0.00898  -0.00538   0.04995   0.02765  -0.06501
  71  C 5   pz       0.00000   0.00000   0.00000   0.00000   0.00000   0.00000
  72  C 5   dxx      0.00362  -0.00705   0.00671  -0.00548   0.00817   0.00193
  73  C 5   dxy      0.00045  -0.00205   0.00508  -0.00592  -0.00175  -0.00312
  74  C 5   dyy      0.00291   0.00311  -0.00842   0.00712  -0.00433   0.00207
  75  C 5   dxz      0.00000   0.00000   0.00000   0.00000   0.00000   0.00000
  76  C 5   dyz      0.00000   0.00000   0.00000   0.00000   0.00000   0.00000
  77  C 5   dzz     -0.01074   0.01094   0.00625   0.00385   0.00680   0.00000
  78  C 6   s       -0.09563  -0.11426   0.06766   0.04929  -0.09065  -0.01033
  79  C 6   s        0.18648   0.23107  -0.13633  -0.10500   0.19127   0.02219
  80  C 6   px       0.03936   0.07180   0.08259  -0.14840  -0.12181  -0.12071
  81  C 6   py      -0.05527   0.00884   0.06492  -0.13607  -0.00319   0.16935
  82  C 6   pz       0.00000   0.00000   0.00000   0.00000   0.00000   0.00000
  83  C 6   s        0.11359   0.16898  -0.10820  -0.08458   0.16316   0.04172
  84  C 6   px       0.00583   0.00503   0.01014  -0.02544  -0.04099  -0.04128
  85  C 6   py      -0.00843   0.00898   0.00538  -0.04995   0.02765   0.06501
  86  C 6   pz       0.00000   0.00000   0.00000   0.00000   0.00000   0.00000
  87  C 6   dxx      0.00362   0.00705   0.00671  -0.00548  -0.00817   0.00193
  88  C 6   dxy     -0.00045  -0.00205  -0.00508   0.00592  -0.00175   0.00312
  89  C 6   dyy      0.00291  -0.00311  -0.00842   0.00712   0.00433   0.00207
  90  C 6   dxz      0.00000   0.00000   0.00000   0.00000   0.00000   0.00000
  91  C 6   dyz      0.00000   0.00000   0.00000   0.00000   0.00000   0.00000
  92  C 6   dzz     -0.01074  -0.01094   0.00625   0.00385  -0.00680   0.00000
  93  H 2   s        0.03314   0.06196   0.03795  -0.05571  -0.09431   0.10670
  94  H 2   s        0.00148   0.00360   0.00353  -0.01013  -0.01826   0.04459
  95  H 3   s        0.03314  -0.06196   0.03795  -0.05571   0.09431   0.10670
  96  H 3   s        0.00148  -0.00360   0.00353  -0.01013   0.01826   0.04459
  97  H 4   s        0.03314  -0.06196  -0.03795  -0.05571  -0.09431   0.10670
  98  H 4   s        0.00148  -0.00360  -0.00353  -0.01013  -0.01826   0.04459
  99  H 5   s        0.03314   0.06196  -0.03795  -0.05571   0.09431   0.10670
 100  H 5   s        0.00148   0.00360  -0.00353  -0.01013   0.01826   0.04459
 101  H 6   s        0.02956   0.00000  -0.06929   0.09615   0.00000   0.10660
 102  H 6   s        0.00177   0.00000  -0.00517   0.01701   0.00000   0.04355
                        13        14        15        16        17        18
 eigenvalues:         -0.684    -0.681    -0.656    -0.639    -0.609    -0.572
   1  H 1   s        0.00000   0.10641   0.00000   0.18927   0.00000   0.00000
   2  H 1   s        0.00000   0.05087   0.00000   0.12933   0.00000   0.00000
   3  C 1   s        0.00000  -0.06499   0.00000   0.00353   0.00000   0.00000
   4  C 1   s        0.00000   0.13581   0.00000  -0.01309   0.00000   0.00000
   5  C 1   px       0.00000   0.07634   0.00000   0.33358   0.00000   0.00000
   6  C 1   py       0.26847   0.00000  -0.09967   0.00000   0.00000  -0.26110
   7  C 1   pz       0.00000   0.00000   0.00000   0.00000   0.21860   0.00000
   8  C 1   s        0.00000   0.17282   0.00000  -0.01421   0.00000   0.00000
   9  C 1   px       0.00000   0.03144   0.00000   0.11739   0.00000   0.00000
  10  C 1   py       0.07854   0.00000   0.01221   0.00000   0.00000  -0.08733
  11  C 1   pz       0.00000   0.00000   0.00000   0.00000   0.11760   0.00000
  12  C 1   dxx      0.00000   0.01032   0.00000   0.01219   0.00000   0.00000
  13  C 1   dxy     -0.00471   0.00000   0.01396   0.00000   0.00000   0.01266
  14  C 1   dyy      0.00000  -0.01473   0.00000  -0.00489   0.00000   0.00000
  15  C 1   dxz      0.00000   0.00000   0.00000   0.00000  -0.01195   0.00000
  16  C 1   dyz      0.00000   0.00000   0.00000   0.00000   0.00000   0.00000
  17  C 1   dzz      0.00000  -0.00463   0.00000  -0.00045   0.00000   0.00000
  18  C 2   s        0.00000   0.06499   0.00000  -0.00353   0.00000   0.00000
  19  C 2   s        0.00000  -0.13581   0.00000   0.01309   0.00000   0.00000
  20  C 2   px       0.00000   0.07634   0.00000   0.33358   0.00000   0.00000
  21  C 2   py       0.26847   0.00000  -0.09967   0.00000   0.00000   0.26110
  22  C 2   pz       0.00000   0.00000   0.00000   0.00000   0.21860   0.00000
  23  C 2   s        0.00000  -0.17282   0.00000   0.01421   0.00000   0.00000
  24  C 2   px       0.00000   0.03144   0.00000   0.11739   0.00000   0.00000
  25  C 2   py       0.07854   0.00000   0.01221   0.00000   0.00000   0.08733
  26  C 2   pz       0.00000   0.00000   0.00000   0.00000   0.11760   0.00000
  27  C 2   dxx      0.00000  -0.01032   0.00000  -0.01219   0.00000   0.00000
  28  C 2   dxy      0.00471   0.00000  -0.01396   0.00000   0.00000   0.01266
  29  C 2   dyy      0.00000   0.01473   0.00000   0.00489   0.00000   0.00000
  30  C 2   dxz      0.00000   0.00000   0.00000   0.00000   0.01195   0.00000
  31  C 2   dyz      0.00000   0.00000   0.00000   0.00000   0.00000   0.00000
  32  C 2   dzz      0.00000   0.00463   0.00000   0.00045   0.00000   0.00000
  33  C 3   s       -0.00237   0.05735   0.01444   0.01966   0.00000   0.00093
  34  C 3   s        0.00403  -0.12044  -0.03634  -0.04472   0.00000  -0.01032
  35  C 3   px       0.25598  -0.06926   0.15316   0.00629   0.00000  -0.01343
  36  C 3   py      -0.12460  -0.15366   0.23003   0.14860   0.00000   0.24909
  37  C 3   pz       0.00000   0.00000   0.00000   0.00000   0.23178   0.00000
  38  C 3   s        0.00881  -0.16659  -0.04939  -0.06763   0.00000   0.03198
  39  C 3   px       0.07900  -0.02597   0.03306   0.03869   0.00000  -0.01708
  40  C 3   py      -0.03903  -0.05745   0.09471   0.03658   0.00000   0.08709
  41  C 3   pz       0.00000   0.00000   0.00000   0.00000   0.12780   0.00000
  42  C 3   dxx     -0.00485   0.00724  -0.00478   0.01101   0.00000  -0.00013
  43  C 3   dxy     -0.00143  -0.01586   0.00181   0.00603   0.00000   0.01954
  44  C 3   dyy      0.00479  -0.00471   0.01201  -0.00618   0.00000   0.00781
  45  C 3   dxz      0.00000   0.00000   0.00000   0.00000  -0.00676   0.00000
  46  C 3   dyz      0.00000   0.00000   0.00000   0.00000  -0.00987   0.00000
  47  C 3   dzz      0.00005   0.00416   0.00038   0.00087   0.00000  -0.00105
  48  C 4   s        0.00237   0.05735  -0.01444   0.01966   0.00000  -0.00093
  49  C 4   s       -0.00403  -0.12044   0.03634  -0.04472   0.00000   0.01032
  50  C 4   px      -0.25598  -0.06926  -0.15316   0.00629   0.00000   0.01343
  51  C 4   py      -0.12460   0.15366   0.23003  -0.14860   0.00000   0.24909
  52  C 4   pz       0.00000   0.00000   0.00000   0.00000   0.23178   0.00000
  53  C 4   s       -0.00881  -0.16659   0.04939  -0.06763   0.00000  -0.03198
  54  C 4   px      -0.07900  -0.02597  -0.03306   0.03869   0.00000   0.01708
  55  C 4   py      -0.03903   0.05745   0.09471  -0.03658   0.00000   0.08709
  56  C 4   pz       0.00000   0.00000   0.00000   0.00000   0.12780   0.00000
  57  C 4   dxx      0.00485   0.00724   0.00478   0.01101   0.00000   0.00013
  58  C 4   dxy     -0.00143   0.01586   0.00181  -0.00603   0.00000   0.01954
  59  C 4   dyy     -0.00479  -0.00471  -0.01201  -0.00618   0.00000  -0.00781
  60  C 4   dxz      0.00000   0.00000   0.00000   0.00000  -0.00676   0.00000
  61  C 4   dyz      0.00000   0.00000   0.00000   0.00000   0.00987   0.00000
  62  C 4   dzz     -0.00005   0.00416  -0.00038   0.00087   0.00000   0.00105
  63  C 5   s        0.00237  -0.05735  -0.01444  -0.01966   0.00000   0.00093
  64  C 5   s       -0.00403   0.12044   0.03634   0.04472   0.00000  -0.01032
  65  C 5   px       0.25598  -0.06926   0.15316   0.00629   0.00000   0.01343
  66  C 5   py      -0.12460  -0.15366   0.23003   0.14860   0.00000  -0.24909
  67  C 5   pz       0.00000   0.00000   0.00000   0.00000   0.23178   0.00000
  68  C 5   s       -0.00881   0.16659   0.04939   0.06763   0.00000   0.03198
  69  C 5   px       0.07900  -0.02597   0.03306   0.03869   0.00000   0.01708
  70  C 5   py      -0.03903  -0.05745   0.09471   0.03658   0.00000  -0.08709
  71  C 5   pz       0.00000   0.00000   0.00000   0.00000   0.12780   0.00000
  72  C 5   dxx      0.00485  -0.00724   0.00478  -0.01101   0.00000  -0.00013
  73  C 5   dxy      0.00143   0.01586  -0.00181  -0.00603   0.00000   0.01954
  74  C 5   dyy     -0.00479   0.00471  -0.01201   0.00618   0.00000   0.00781
  75  C 5   dxz      0.00000   0.00000   0.00000   0.00000   0.00676   0.00000
  76  C 5   dyz      0.00000   0.00000   0.00000   0.00000   0.00987   0.00000
  77  C 5   dzz     -0.00005  -0.00416  -0.00038  -0.00087   0.00000  -0.00105
  78  C 6   s       -0.00237  -0.05735   0.01444  -0.01966   0.00000  -0.00093
  79  C 6   s        0.00403   0.12044  -0.03634   0.04472   0.00000   0.01032
  80  C 6   px      -0.25598  -0.06926  -0.15316   0.00629   0.00000  -0.01343
  81  C 6   py      -0.12460   0.15366   0.23003  -0.14860   0.00000  -0.24909
  82  C 6   pz       0.00000   0.00000   0.00000   0.00000   0.23178   0.00000
  83  C 6   s        0.00881   0.16659  -0.04939   0.06763   0.00000  -0.03198
  84  C 6   px      -0.07900  -0.02597  -0.03306   0.03869   0.00000  -0.01708
  85  C 6   py      -0.03903   0.05745   0.09471  -0.03658   0.00000  -0.08709
  86  C 6   pz       0.00000   0.00000   0.00000   0.00000   0.12780   0.00000
  87  C 6   dxx     -0.00485  -0.00724  -0.00478  -0.01101   0.00000   0.00013
  88  C 6   dxy      0.00143  -0.01586  -0.00181   0.00603   0.00000   0.01954
  89  C 6   dyy      0.00479   0.00471   0.01201   0.00618   0.00000  -0.00781
  90  C 6   dxz      0.00000   0.00000   0.00000   0.00000   0.00676   0.00000
  91  C 6   dyz      0.00000   0.00000   0.00000   0.00000  -0.00987   0.00000
  92  C 6   dzz      0.00005  -0.00416   0.00038  -0.00087   0.00000   0.00105
  93  H 2   s        0.01375  -0.15135   0.14264   0.05570   0.00000   0.14842
  94  H 2   s        0.00888  -0.07922   0.09643   0.04139   0.00000   0.12512
  95  H 3   s       -0.01375  -0.15135  -0.14264   0.05570   0.00000  -0.14842
  96  H 3   s       -0.00888  -0.07922  -0.09643   0.04139   0.00000  -0.12512
  97  H 4   s       -0.01375   0.15135  -0.14264  -0.05570   0.00000   0.14842
  98  H 4   s       -0.00888   0.07922  -0.09643  -0.04139   0.00000   0.12512
  99  H 5   s        0.01375   0.15135   0.14264  -0.05570   0.00000  -0.14842
 100  H 5   s        0.00888   0.07922   0.09643  -0.04139   0.00000  -0.12512
 101  H 6   s        0.00000  -0.10641   0.00000  -0.18927   0.00000   0.00000
 102  H 6   s        0.00000  -0.05087   0.00000  -0.12933   0.00000   0.00000
                        19        20        21        22        23        24
 eigenvalues:         -0.570    -0.481    -0.507    -0.248    -0.230    -0.102
   1  H 1   s       -0.17884   0.00000   0.00000   0.00000   0.00000  -0.07725
   2  H 1   s       -0.14727   0.00000   0.00000   0.00000   0.00000  -0.64139
   3  C 1   s        0.00530   0.00000   0.00000   0.00000   0.00000  -0.03467
   4  C 1   s       -0.00327   0.00000   0.00000   0.00000   0.00000   0.07806
   5  C 1   px      -0.24652   0.00000   0.00000   0.00000   0.00000   0.10606
   6  C 1   py       0.00000   0.00000   0.00000   0.00000   0.00000   0.00000
   7  C 1   pz       0.00000   0.34073   0.00000   0.00000   0.37901   0.00000
   8  C 1   s       -0.04974   0.00000   0.00000   0.00000   0.00000   0.41083
   9  C 1   px      -0.08375   0.00000   0.00000   0.00000   0.00000   0.24948
  10  C 1   py       0.00000   0.00000   0.00000   0.00000   0.00000   0.00000
  11  C 1   pz       0.00000   0.22547   0.00000   0.00000   0.46630   0.00000
  12  C 1   dxx     -0.02274   0.00000   0.00000   0.00000   0.00000  -0.02451
  13  C 1   dxy      0.00000   0.00000   0.00000   0.00000   0.00000   0.00000
  14  C 1   dyy      0.01467   0.00000   0.00000   0.00000   0.00000   0.01692
  15  C 1   dxz      0.00000  -0.00849   0.00000   0.00000   0.00752   0.00000
  16  C 1   dyz      0.00000   0.00000   0.01816   0.03044   0.00000   0.00000
  17  C 1   dzz      0.00120   0.00000   0.00000   0.00000   0.00000   0.00319
  18  C 2   s        0.00530   0.00000   0.00000   0.00000   0.00000  -0.03467
  19  C 2   s       -0.00327   0.00000   0.00000   0.00000   0.00000   0.07806
  20  C 2   px       0.24652   0.00000   0.00000   0.00000   0.00000  -0.10606
  21  C 2   py       0.00000   0.00000   0.00000   0.00000   0.00000   0.00000
  22  C 2   pz       0.00000  -0.34073   0.00000   0.00000   0.37901   0.00000
  23  C 2   s       -0.04974   0.00000   0.00000   0.00000   0.00000   0.41083
  24  C 2   px       0.08375   0.00000   0.00000   0.00000   0.00000  -0.24948
  25  C 2   py       0.00000   0.00000   0.00000   0.00000   0.00000   0.00000
  26  C 2   pz       0.00000  -0.22547   0.00000   0.00000   0.46630   0.00000
  27  C 2   dxx     -0.02274   0.00000   0.00000   0.00000   0.00000  -0.02451
  28  C 2   dxy      0.00000   0.00000   0.00000   0.00000   0.00000   0.00000
  29  C 2   dyy      0.01467   0.00000   0.00000   0.00000   0.00000   0.01692
  30  C 2   dxz      0.00000  -0.00849   0.00000   0.00000  -0.00752   0.00000
  31  C 2   dyz      0.00000   0.00000   0.01816  -0.03044   0.00000   0.00000
  32  C 2   dzz      0.00120   0.00000   0.00000   0.00000   0.00000   0.00319
  33  C 3   s       -0.00233   0.00000   0.00000   0.00000   0.00000  -0.04040
  34  C 3   s       -0.00012   0.00000   0.00000   0.00000   0.00000   0.08828
  35  C 3   px       0.24993   0.00000   0.00000   0.00000   0.00000   0.06701
  36  C 3   py      -0.01426   0.00000   0.00000   0.00000   0.00000   0.10621
  37  C 3   pz       0.00000   0.18310   0.30840   0.33427  -0.18779   0.00000
  38  C 3   s        0.02098   0.00000   0.00000   0.00000   0.00000   0.51495
  39  C 3   px       0.08579   0.00000   0.00000   0.00000   0.00000   0.15483
  40  C 3   py      -0.01002   0.00000   0.00000   0.00000   0.00000   0.23842
  41  C 3   pz       0.00000   0.12556   0.19671   0.39056  -0.22593   0.00000
  42  C 3   dxx     -0.01177   0.00000   0.00000   0.00000   0.00000   0.00605
  43  C 3   dxy      0.00551   0.00000   0.00000   0.00000   0.00000  -0.02147
  44  C 3   dyy      0.01526   0.00000   0.00000   0.00000   0.00000  -0.01459
  45  C 3   dxz      0.00000   0.01275  -0.01402   0.01674   0.02310   0.00000
  46  C 3   dyz      0.00000  -0.01182  -0.00016  -0.00043  -0.01922   0.00000
  47  C 3   dzz     -0.00048   0.00000   0.00000   0.00000   0.00000   0.00357
  48  C 4   s       -0.00233   0.00000   0.00000   0.00000   0.00000  -0.04040
  49  C 4   s       -0.00012   0.00000   0.00000   0.00000   0.00000   0.08828
  50  C 4   px       0.24993   0.00000   0.00000   0.00000   0.00000   0.06701
  51  C 4   py       0.01426   0.00000   0.00000   0.00000   0.00000  -0.10621
  52  C 4   pz       0.00000   0.18310  -0.30840  -0.33427  -0.18779   0.00000
  53  C 4   s        0.02098   0.00000   0.00000   0.00000   0.00000   0.51495
  54  C 4   px       0.08579   0.00000   0.00000   0.00000   0.00000   0.15483
  55  C 4   py       0.01002   0.00000   0.00000   0.00000   0.00000  -0.23842
  56  C 4   pz       0.00000   0.12556  -0.19671  -0.39056  -0.22593   0.00000
  57  C 4   dxx     -0.01177   0.00000   0.00000   0.00000   0.00000   0.00605
  58  C 4   dxy     -0.00551   0.00000   0.00000   0.00000   0.00000   0.02147
  59  C 4   dyy      0.01526   0.00000   0.00000   0.00000   0.00000  -0.01459
  60  C 4   dxz      0.00000   0.01275   0.01402  -0.01674   0.02310   0.00000
  61  C 4   dyz      0.00000   0.01182  -0.00016  -0.00043   0.01922   0.00000
  62  C 4   dzz     -0.00048   0.00000   0.00000   0.00000   0.00000   0.00357
  63  C 5   s       -0.00233   0.00000   0.00000   0.00000   0.00000  -0.04040
  64  C 5   s       -0.00012   0.00000   0.00000   0.00000   0.00000   0.08828
  65  C 5   px      -0.24993   0.00000   0.00000   0.00000   0.00000  -0.06701
  66  C 5   py       0.01426   0.00000   0.00000   0.00000   0.00000  -0.10621
  67  C 5   pz       0.00000  -0.18310  -0.30840   0.33427  -0.18779   0.00000
  68  C 5   s        0.02098   0.00000   0.00000   0.00000   0.00000   0.51495
  69  C 5   px      -0.08579   0.00000   0.00000   0.00000   0.00000  -0.15483
  70  C 5   py       0.01002   0.00000   0.00000   0.00000   0.00000  -0.23842
  71  C 5   pz       0.00000  -0.12556  -0.19671   0.39056  -0.22593   0.00000
  72  C 5   dxx     -0.01177   0.00000   0.00000   0.00000   0.00000   0.00605
  73  C 5   dxy      0.00551   0.00000   0.00000   0.00000   0.00000  -0.02147
  74  C 5   dyy      0.01526   0.00000   0.00000   0.00000   0.00000  -0.01459
  75  C 5   dxz      0.00000   0.01275  -0.01402  -0.01674  -0.02310   0.00000
  76  C 5   dyz      0.00000  -0.01182  -0.00016   0.00043   0.01922   0.00000
  77  C 5   dzz     -0.00048   0.00000   0.00000   0.00000   0.00000   0.00357
  78  C 6   s       -0.00233   0.00000   0.00000   0.00000   0.00000  -0.04040
  79  C 6   s       -0.00012   0.00000   0.00000   0.00000   0.00000   0.08828
  80  C 6   px      -0.24993   0.00000   0.00000   0.00000   0.00000  -0.06701
  81  C 6   py      -0.01426   0.00000   0.00000   0.00000   0.00000   0.10621
  82  C 6   pz       0.00000  -0.18310   0.30840  -0.33427  -0.18779   0.00000
  83  C 6   s        0.02098   0.00000   0.00000   0.00000   0.00000   0.51495
  84  C 6   px      -0.08579   0.00000   0.00000   0.00000   0.00000  -0.15483
  85  C 6   py      -0.01002   0.00000   0.00000   0.00000   0.00000   0.23842
  86  C 6   pz       0.00000  -0.12556   0.19671  -0.39056  -0.22593   0.00000
  87  C 6   dxx     -0.01177   0.00000   0.00000   0.00000   0.00000   0.00605
  88  C 6   dxy     -0.00551   0.00000   0.00000   0.00000   0.00000   0.02147
  89  C 6   dyy      0.01526   0.00000   0.00000   0.00000   0.00000  -0.01459
  90  C 6   dxz      0.00000   0.01275   0.01402   0.01674  -0.02310   0.00000
  91  C 6   dyz      0.00000   0.01182  -0.00016   0.00043  -0.01922   0.00000
  92  C 6   dzz     -0.00048   0.00000   0.00000   0.00000   0.00000   0.00357
  93  H 2   s        0.08522   0.00000   0.00000   0.00000   0.00000  -0.08344
  94  H 2   s        0.07340   0.00000   0.00000   0.00000   0.00000  -0.73092
  95  H 3   s        0.08522   0.00000   0.00000   0.00000   0.00000  -0.08344
  96  H 3   s        0.07340   0.00000   0.00000   0.00000   0.00000  -0.73092
  97  H 4   s        0.08522   0.00000   0.00000   0.00000   0.00000  -0.08344
  98  H 4   s        0.07340   0.00000   0.00000   0.00000   0.00000  -0.73092
  99  H 5   s        0.08522   0.00000   0.00000   0.00000   0.00000  -0.08344
 100  H 5   s        0.07340   0.00000   0.00000   0.00000   0.00000  -0.73092
 101  H 6   s       -0.17884   0.00000   0.00000   0.00000   0.00000  -0.07725
 102  H 6   s       -0.14727   0.00000   0.00000   0.00000   0.00000  -0.64139
                        25        26
 eigenvalues:         -0.076    -0.049
   1  H 1   s        0.00000   0.00000
   2  H 1   s        0.00000   0.00000
   3  C 1   s        0.00000   0.00000
   4  C 1   s        0.00000   0.00000
   5  C 1   px       0.00000   0.00000
   6  C 1   py       0.00000  -0.05069
   7  C 1   pz       0.30936   0.00000
   8  C 1   s        0.00000   0.00000
   9  C 1   px       0.00000   0.00000
  10  C 1   py       0.00000   0.11072
  11  C 1   pz       0.51127   0.00000
  12  C 1   dxx      0.00000   0.00000
  13  C 1   dxy      0.00000  -0.01426
  14  C 1   dyy      0.00000   0.00000
  15  C 1   dxz      0.01491   0.00000
  16  C 1   dyz      0.00000   0.00000
  17  C 1   dzz      0.00000   0.00000
  18  C 2   s        0.00000   0.00000
  19  C 2   s        0.00000   0.00000
  20  C 2   px       0.00000   0.00000
  21  C 2   py       0.00000  -0.05069
  22  C 2   pz      -0.30936   0.00000
  23  C 2   s        0.00000   0.00000
  24  C 2   px       0.00000   0.00000
  25  C 2   py       0.00000   0.11072
  26  C 2   pz      -0.51127   0.00000
  27  C 2   dxx      0.00000   0.00000
  28  C 2   dxy      0.00000   0.01426
  29  C 2   dyy      0.00000   0.00000
  30  C 2   dxz      0.01491   0.00000
  31  C 2   dyz      0.00000   0.00000
  32  C 2   dzz      0.00000   0.00000
  33  C 3   s        0.00000   0.03146
  34  C 3   s        0.00000  -0.04380
  35  C 3   px       0.00000  -0.09150
  36  C 3   py       0.00000  -0.20751
  37  C 3   pz      -0.30666   0.00000
  38  C 3   s        0.00000  -0.70692
  39  C 3   px       0.00000  -0.29102
  40  C 3   py       0.00000  -0.39080
  41  C 3   pz      -0.49428   0.00000
  42  C 3   dxx      0.00000  -0.00054
  43  C 3   dxy      0.00000   0.01933
  44  C 3   dyy      0.00000   0.00241
  45  C 3   dxz     -0.00681   0.00000
  46  C 3   dyz     -0.01562   0.00000
  47  C 3   dzz      0.00000   0.00005
  48  C 4   s        0.00000  -0.03146
  49  C 4   s        0.00000   0.04380
  50  C 4   px       0.00000   0.09150
  51  C 4   py       0.00000  -0.20751
  52  C 4   pz      -0.30666   0.00000
  53  C 4   s        0.00000   0.70692
  54  C 4   px       0.00000   0.29102
  55  C 4   py       0.00000  -0.39080
  56  C 4   pz      -0.49428   0.00000
  57  C 4   dxx      0.00000   0.00054
  58  C 4   dxy      0.00000   0.01933
  59  C 4   dyy      0.00000  -0.00241
  60  C 4   dxz     -0.00681   0.00000
  61  C 4   dyz      0.01562   0.00000
  62  C 4   dzz      0.00000  -0.00005
  63  C 5   s        0.00000  -0.03146
  64  C 5   s        0.00000   0.04380
  65  C 5   px       0.00000  -0.09150
  66  C 5   py       0.00000  -0.20751
  67  C 5   pz       0.30666   0.00000
  68  C 5   s        0.00000   0.70692
  69  C 5   px       0.00000  -0.29102
  70  C 5   py       0.00000  -0.39080
  71  C 5   pz       0.49428   0.00000
  72  C 5   dxx      0.00000   0.00054
  73  C 5   dxy      0.00000  -0.01933
  74  C 5   dyy      0.00000  -0.00241
  75  C 5   dxz     -0.00681   0.00000
  76  C 5   dyz     -0.01562   0.00000
  77  C 5   dzz      0.00000  -0.00005
  78  C 6   s        0.00000   0.03146
  79  C 6   s        0.00000  -0.04380
  80  C 6   px       0.00000   0.09150
  81  C 6   py       0.00000  -0.20751
  82  C 6   pz       0.30666   0.00000
  83  C 6   s        0.00000  -0.70692
  84  C 6   px       0.00000   0.29102
  85  C 6   py       0.00000  -0.39080
  86  C 6   pz       0.49428   0.00000
  87  C 6   dxx      0.00000  -0.00054
  88  C 6   dxy      0.00000  -0.01933
  89  C 6   dyy      0.00000   0.00241
  90  C 6   dxz     -0.00681   0.00000
  91  C 6   dyz      0.01562   0.00000
  92  C 6   dzz      0.00000   0.00005
  93  H 2   s        0.00000   0.07052
  94  H 2   s        0.00000   1.00285
  95  H 3   s        0.00000  -0.07052
  96  H 3   s        0.00000  -1.00285
  97  H 4   s        0.00000  -0.07052
  98  H 4   s        0.00000  -1.00285
  99  H 5   s        0.00000   0.07052
 100  H 5   s        0.00000   1.00285
 101  H 6   s        0.00000   0.00000
 102  H 6   s        0.00000   0.00000
 
          Ground-State Mulliken Net Atomic Charges

     Atom                 Charge (a.u.)
  ----------------------------------------
      1 H                     0.233507
      2 C                    -0.113477
      3 C                    -0.113477
      4 C                    -0.059930
      5 C                    -0.059930
      6 C                    -0.059930
      7 C                    -0.059930
      8 H                     0.249915
      9 H                     0.249915
     10 H                     0.249915
     11 H                     0.249915
     12 H                     0.233507
  ----------------------------------------
  Sum of atomic charges =     1.000000

 -----------------------------------------------------------------
                    Cartesian Multipole Moments
 -----------------------------------------------------------------
    Charge (ESU x 10^10)
                 4.8032
    Dipole Moment (Debye)
         X       0.0000      Y       0.0000      Z       0.0000
       Tot       0.0000
    Quadrupole Moments (Debye-Ang)
        XX     -21.5852     XY       0.0000     YY     -18.3902
        XZ       0.0000     YZ       0.0000     ZZ     -34.7069
    Octapole Moments (Debye-Ang^2)
       XXX       0.0000    XXY       0.0000    XYY       0.0000
       YYY       0.0000    XXZ       0.0000    XYZ       0.0000
       YYZ       0.0000    XZZ       0.0000    YZZ       0.0000
       ZZZ       0.0000
    Hexadecapole Moments (Debye-Ang^3)
      XXXX    -213.5963   XXXY       0.0000   XXYY     -67.8504
      XYYY       0.0000   YYYY    -201.0769   XXXZ       0.0000
      XXYZ       0.0000   XYYZ       0.0000   YYYZ       0.0000
      XXZZ     -54.8071   XYZZ       0.0000   YYZZ     -51.8781
      XZZZ       0.0000   YZZZ       0.0000   ZZZZ     -33.9531
 -----------------------------------------------------------------
 Calculating analytic gradient of the SCF energy
 Gradient of SCF Energy
            1           2           3           4           5           6
    1   0.0013865  -0.0108059   0.0108059  -0.0452470  -0.0452470   0.0452470
    2  -0.0000000  -0.0000000  -0.0000000   0.0047942  -0.0047942  -0.0047942
    3   0.0000000  -0.0000000   0.0000000  -0.0000000  -0.0000000  -0.0000000
            7           8           9          10          11          12
    1   0.0452470  -0.0002295  -0.0002295   0.0002295   0.0002295  -0.0013865
    2   0.0047942   0.0001723  -0.0001723  -0.0001723   0.0001723  -0.0000000
    3  -0.0000000   0.0000000   0.0000000   0.0000000   0.0000000   0.0000000
 Max gradient component =       4.525E-02
 RMS gradient           =       1.538E-02
 Gradient time:  CPU 8.18 s  wall 7.80 s


** GEOMETRY OPTIMIZATION IN DELOCALIZED INTERNAL COORDINATES **
   Searching for a Minimum

   Optimization Cycle:   1

                       Coordinates (Angstroms)
     ATOM              X           Y           Z
    1  H           2.481556    0.000000    0.000000
    2  C           1.394826    0.000000    0.000000
    3  C          -1.394826    0.000000    0.000000
    4  C           0.697413    1.207955    0.000000
    5  C           0.697413   -1.207955    0.000000
    6  C          -0.697413   -1.207955    0.000000
    7  C          -0.697413    1.207955    0.000000
    8  H           1.240778    2.149090    0.000000
    9  H           1.240778   -2.149090    0.000000
   10  H          -1.240778   -2.149090    0.000000
   11  H          -1.240778    2.149090    0.000000
   12  H          -2.481556    0.000000    0.000000
   Point Group: d6h   Number of degrees of freedom:   2


   Energy is   -231.915028014


 Attempting to Generate Delocalized Internal Coordinates

  2 Hessian modes will be used to form the next step
  Hessian Eigenvalues:
     0.351933    0.464889

 Minimum Search - Taking Simple RFO Step
 Searching for Lamda that Minimizes Along All modes
 Value Taken    Lamda =  -0.00305705
 Step Taken.  Stepsize is  0.080845

                             Maximum     Tolerance    Cnvgd?
         Gradient           0.031529      0.000300      NO
         Displacement       0.066952      0.001200      NO
         Energy change     *********      0.000001      NO


 New Cartesian Coordinates Obtained by Inverse Iteration

 Displacement from previous Coordinates is:  0.111892
 Writing REM_CC_EA           12
 ----------------------------------------------------
       Standard Nuclear Orientation (Angstroms)
    I     Atom         X            Y            Z
 ----------------------------------------------------
    1      H       2.498283     0.000000     0.000000
    2      C       1.412276     0.000000     0.000000
    3      C      -1.412276     0.000000     0.000000
    4      C       0.706138     1.223067     0.000000
    5      C       0.706138    -1.223067     0.000000
    6      C      -0.706138    -1.223067     0.000000
    7      C      -0.706138     1.223067     0.000000
    8      H       1.249142     2.163577     0.000000
    9      H       1.249142    -2.163577     0.000000
   10      H      -1.249142    -2.163577     0.000000
   11      H      -1.249142     2.163577     0.000000
   12      H      -2.498283     0.000000     0.000000
 ----------------------------------------------------
 Molecular Point Group                 D6h   NOp = 24
 Largest Abelian Subgroup              D2h   NOp =  8
 Nuclear Repulsion Energy =   201.3004257184 hartrees
 There are       21 alpha and       20 beta electrons

 Q-Chem warning in module snoman.F, line  300, PE  0:

 turning symmetry off for DFT job

 Applying Cartesian multipole field
    Component          Value
    ---------          -----
     (2,0,0)        1.00000E-11
     (0,2,0)        2.00000E-11
     (0,0,2)       -3.00000E-10
 Nucleus-field energy     =     0.0000000059 hartrees
 Requested basis set is 6-31G(d)
Basis set in general basis input format:
-----------------------------------------------------------------------
$basis
H    0
S    3    1.000000
   1.87311370E+01    3.34946000E-02 
   2.82539370E+00    2.34726950E-01 
   6.40121700E-01    8.13757330E-01 
S    1    1.000000
   1.61277800E-01    1.00000000E+00 
****
C    0
S    6    1.000000
   3.04752490E+03    1.83470000E-03 
   4.57369510E+02    1.40373000E-02 
   1.03948690E+02    6.88426000E-02 
   2.92101550E+01    2.32184400E-01 
   9.28666300E+00    4.67941300E-01 
   3.16392700E+00    3.62312000E-01 
SP   3    1.000000
   7.86827240E+00   -1.19332400E-01   6.89991000E-02 
   1.88128850E+00   -1.60854200E-01   3.16424000E-01 
   5.44249300E-01    1.14345640E+00   7.44308300E-01 
SP   1    1.000000
   1.68714400E-01    1.00000000E+00   1.00000000E+00 
D    1    1.000000
   8.00000000E-01    1.00000000E+00 
****
C    0
S    6    1.000000
   3.04752490E+03    1.83470000E-03 
   4.57369510E+02    1.40373000E-02 
   1.03948690E+02    6.88426000E-02 
   2.92101550E+01    2.32184400E-01 
   9.28666300E+00    4.67941300E-01 
   3.16392700E+00    3.62312000E-01 
SP   3    1.000000
   7.86827240E+00   -1.19332400E-01   6.89991000E-02 
   1.88128850E+00   -1.60854200E-01   3.16424000E-01 
   5.44249300E-01    1.14345640E+00   7.44308300E-01 
SP   1    1.000000
   1.68714400E-01    1.00000000E+00   1.00000000E+00 
D    1    1.000000
   8.00000000E-01    1.00000000E+00 
****
C    0
S    6    1.000000
   3.04752490E+03    1.83470000E-03 
   4.57369510E+02    1.40373000E-02 
   1.03948690E+02    6.88426000E-02 
   2.92101550E+01    2.32184400E-01 
   9.28666300E+00    4.67941300E-01 
   3.16392700E+00    3.62312000E-01 
SP   3    1.000000
   7.86827240E+00   -1.19332400E-01   6.89991000E-02 
   1.88128850E+00   -1.60854200E-01   3.16424000E-01 
   5.44249300E-01    1.14345640E+00   7.44308300E-01 
SP   1    1.000000
   1.68714400E-01    1.00000000E+00   1.00000000E+00 
D    1    1.000000
   8.00000000E-01    1.00000000E+00 
****
C    0
S    6    1.000000
   3.04752490E+03    1.83470000E-03 
   4.57369510E+02    1.40373000E-02 
   1.03948690E+02    6.88426000E-02 
   2.92101550E+01    2.32184400E-01 
   9.28666300E+00    4.67941300E-01 
   3.16392700E+00    3.62312000E-01 
SP   3    1.000000
   7.86827240E+00   -1.19332400E-01   6.89991000E-02 
   1.88128850E+00   -1.60854200E-01   3.16424000E-01 
   5.44249300E-01    1.14345640E+00   7.44308300E-01 
SP   1    1.000000
   1.68714400E-01    1.00000000E+00   1.00000000E+00 
D    1    1.000000
   8.00000000E-01    1.00000000E+00 
****
C    0
S    6    1.000000
   3.04752490E+03    1.83470000E-03 
   4.57369510E+02    1.40373000E-02 
   1.03948690E+02    6.88426000E-02 
   2.92101550E+01    2.32184400E-01 
   9.28666300E+00    4.67941300E-01 
   3.16392700E+00    3.62312000E-01 
SP   3    1.000000
   7.86827240E+00   -1.19332400E-01   6.89991000E-02 
   1.88128850E+00   -1.60854200E-01   3.16424000E-01 
   5.44249300E-01    1.14345640E+00   7.44308300E-01 
SP   1    1.000000
   1.68714400E-01    1.00000000E+00   1.00000000E+00 
D    1    1.000000
   8.00000000E-01    1.00000000E+00 
****
C    0
S    6    1.000000
   3.04752490E+03    1.83470000E-03 
   4.57369510E+02    1.40373000E-02 
   1.03948690E+02    6.88426000E-02 
   2.92101550E+01    2.32184400E-01 
   9.28666300E+00    4.67941300E-01 
   3.16392700E+00    3.62312000E-01 
SP   3    1.000000
   7.86827240E+00   -1.19332400E-01   6.89991000E-02 
   1.88128850E+00   -1.60854200E-01   3.16424000E-01 
   5.44249300E-01    1.14345640E+00   7.44308300E-01 
SP   1    1.000000
   1.68714400E-01    1.00000000E+00   1.00000000E+00 
D    1    1.000000
   8.00000000E-01    1.00000000E+00 
****
H    0
S    3    1.000000
   1.87311370E+01    3.34946000E-02 
   2.82539370E+00    2.34726950E-01 
   6.40121700E-01    8.13757330E-01 
S    1    1.000000
   1.61277800E-01    1.00000000E+00 
****
H    0
S    3    1.000000
   1.87311370E+01    3.34946000E-02 
   2.82539370E+00    2.34726950E-01 
   6.40121700E-01    8.13757330E-01 
S    1    1.000000
   1.61277800E-01    1.00000000E+00 
****
H    0
S    3    1.000000
   1.87311370E+01    3.34946000E-02 
   2.82539370E+00    2.34726950E-01 
   6.40121700E-01    8.13757330E-01 
S    1    1.000000
   1.61277800E-01    1.00000000E+00 
****
H    0
S    3    1.000000
   1.87311370E+01    3.34946000E-02 
   2.82539370E+00    2.34726950E-01 
   6.40121700E-01    8.13757330E-01 
S    1    1.000000
   1.61277800E-01    1.00000000E+00 
****
H    0
S    3    1.000000
   1.87311370E+01    3.34946000E-02 
   2.82539370E+00    2.34726950E-01 
   6.40121700E-01    8.13757330E-01 
S    1    1.000000
   1.61277800E-01    1.00000000E+00 
****
$end
-----------------------------------------------------------------------
 There are 36 shells and 102 basis functions
 A cutoff of  1.0D-12 yielded    648 shell pairs
 There are   5397 function pairs
Evaluating contribution to one-electron hamiltonian from nuclear
 Smallest overlap matrix eigenvalue = 5.79E-04
 Multipole matrices computed through 2nd order
 Guess MOs from SCF MO coefficient file
Reading MOs from coefficient file
Reading MOs from coefficient file
 A restricted hybrid HF-DFT SCF calculation will be
 performed using direct minimization
 Exchange:     0.2000 Hartree-Fock + 0.0800 Slater + 0.7200 Becke
 Correlation:  0.8100 LYP + 0.1900 VWN1RPA
 Using SG-1 standard quadrature grid
 SCF converges when RMS gradient is below 1.0E-08
 Warning!  Inaccurate integrated density:
   Number of electrons =    41
   Numerical integral  =    40.943589370272
   Relative error      =    -0.1375869018 %
 ---------------------------------------
  Cycle       Energy        RMS Gradient
 ---------------------------------------
    1    -231.8511637371      1.55E-03
    2    -231.9160935596      1.60E-03
    3    -231.9160935493      1.60E-03Try steepest descent step
    4    -231.9161298246      1.53E-03
    5    -231.9164010080      2.39E-05
    6    -231.9164010573      8.14E-06
    7    -231.9164010630      4.08E-06
    8    -231.9164010638      1.14E-06BFGS subspace was reset
    9    -231.9164010644      1.68E-06
   10    -231.9164010633      3.32E-06Energy rises: line search
   11    -231.9164010644      8.85E-07BFGS subspace was reset
   12    -231.9164010647      5.78E-07
   13    -231.9164010646      1.47E-06Energy rises: line search
   14    -231.9164010651      1.14E-07
   15    -231.9164010649      1.47E-07Energy rises: line search
   16    -231.9164010656      4.59E-08
   17    -231.9164010647      3.07E-08Energy rises: line search
   18    -231.9164010651      3.49E-08BFGS subspace was reset
   19    -231.9164010654      3.44E-08
   20    -231.9164010651      7.89E-08Energy rises: line search
   21    -231.9164010656      1.87E-08
   22    -231.9164010654      3.13E-08Energy rises: line search
   23    -231.9164010656      2.16E-08
   24    -231.9164010650      1.51E-08Energy rises: line search
   25    -231.9164010649      1.42E-08BFGS subspace was reset
   26    -231.9164010653      1.73E-08
   27    -231.9164010654      5.60E-08
   28    -231.9164010653      9.32E-09 Convergence criterion met
 ---------------------------------------
 SCF time:  CPU 76.96 s  wall 71.77 s
 Analysis of SCF Wavefunction
 
 --------------------------------------------------------------
             Orbital Energies (a.u.) and Symmetries
 --------------------------------------------------------------
 Warning : Irrep of orbital(   1) could not be determined
 Warning : Irrep of orbital(   2) could not be determined
 Warning : Irrep of orbital(   3) could not be determined
 Warning : Irrep of orbital(   4) could not be determined
 Warning : Irrep of orbital(   5) could not be determined
 Warning : Irrep of orbital(   6) could not be determined
 Warning : Irrep of orbital(  13) could not be determined
 Warning : Irrep of orbital(  14) could not be determined
 Warning : Irrep of orbital(  15) could not be determined
 Warning : Irrep of orbital(  16) could not be determined
 Warning : Irrep of orbital(  26) could not be determined
 Warning : Irrep of orbital(  27) could not be determined
 Warning : Irrep of orbital(  30) could not be determined
 Warning : Irrep of orbital(  39) could not be determined
 Warning : Irrep of orbital(  40) could not be determined
 Warning : Irrep of orbital(  41) could not be determined
 Warning : Irrep of orbital(  42) could not be determined
 Warning : Irrep of orbital(  43) could not be determined
 Warning : Irrep of orbital(  44) could not be determined
 Warning : Irrep of orbital(  50) could not be determined
 Warning : Irrep of orbital(  51) could not be determined
 Warning : Irrep of orbital(  52) could not be determined
 Warning : Irrep of orbital(  53) could not be determined
 Warning : Irrep of orbital(  54) could not be determined
 Warning : Irrep of orbital(  57) could not be determined
 Warning : Irrep of orbital(  65) could not be determined
 Warning : Irrep of orbital(  68) could not be determined
 Warning : Irrep of orbital(  69) could not be determined
 Warning : Irrep of orbital(  80) could not be determined
 Warning : Irrep of orbital(  81) could not be determined
 Warning : Irrep of orbital(  82) could not be determined
 Warning : Irrep of orbital(  83) could not be determined
 Warning : Irrep of orbital(  84) could not be determined
 Warning : Irrep of orbital(  85) could not be determined
 Warning : Irrep of orbital(  86) could not be determined
 
 Alpha MOs, Restricted
 -- Doubly Occupied --           
-10.449 -10.449 -10.448 -10.448 -10.416 -10.416  -1.089  -0.991
  0 xxx   0 xxx   0 xxx   0 xxx   0 xxx   0 xxx   1 A1g   1 E1u                
 -0.970  -0.832  -0.832  -0.744  -0.685  -0.678  -0.654  -0.638
  1 E1u   1 E2g   1 E2g   2 A1g   0 xxx   0 xxx   0 xxx   0 xxx                
 -0.602  -0.572  -0.570  -0.478
  1 A2u   2 E2g   2 E2g   1 E1g                                                
 -- Singly Occupied (Occupied) --
 -0.504
  1 E1g                                                                        
 -- Virtual --                   
 -0.251  -0.232  -0.100  -0.084  -0.048  -0.038  -0.019  -0.011
  1 E2u   1 E2u   3 A1g   1 B2g   0 xxx   0 xxx   3 E2g   3 E2g                
  0.005   0.080   0.083   0.087   0.091   0.264   0.297   0.300
  0 xxx   4 E2g   4 E2g   2 E1u   2 E1u   1 B2u   2 A2u   1 B1u                
  0.310   0.327   0.364   0.370   0.370   0.379   0.387   0.396
  4 A1g   0 xxx   0 xxx   0 xxx   0 xxx   0 xxx   0 xxx   3 E1u                
  0.403   0.437   0.451   0.526   0.623   0.629   0.640   0.660
  3 E1u   2 E2u   2 E2u   2 B2g   0 xxx   0 xxx   0 xxx   0 xxx                
  0.673   0.712   0.712   0.733   0.733   0.855   0.866   0.904
  0 xxx   4 E1u   4 E1u   0 xxx   1 A2g   5 E2g   5 E2g   5 E1u                
  0.911   0.976   1.010   1.154   1.208   1.211   1.227   1.238
  5 E1u   2 B1u   1 B1g   0 xxx   6 E2g   6 E2g   0 xxx   0 xxx                
  1.255   1.275   1.505   1.536   1.622   1.661   1.726   1.741
  2 E1g   2 E1g   5 A1g   2 B2u   6 A1g   3 B1u   6 E1u   6 E1u                
  1.796   1.801   1.876   1.886   1.895   1.898   2.035   2.053
  7 E2g   7 E2g   0 xxx   0 xxx   0 xxx   0 xxx   0 xxx   0 xxx                
  2.054   2.289   2.303   2.377   2.430   2.441   2.459   2.470
  0 xxx   8 E2g   8 E2g   1 A1u   9 E2g   9 E2g   7 E1u   7 E1u                
  2.515   2.759   3.126   3.822   3.861   3.880   4.077   4.094
  4 B1u   2 A2g   5 B1u   7 A1g   8 E1u   8 E1u  10 E2g  10 E2g                
  4.413
  6 B1u                                                                        
 
 Beta MOs, Restricted
 -- Doubly Occupied --           
-10.446 -10.446 -10.445 -10.445 -10.416 -10.416  -1.079  -0.974
  0 xxx   0 xxx   0 xxx   0 xxx   0 xxx   0 xxx   1 A1g   1 E1u                
 -0.965  -0.826  -0.824  -0.741  -0.680  -0.673  -0.650  -0.636
  1 E1u   1 E2g   1 E2g   2 A1g   0 xxx   0 xxx   0 xxx   0 xxx                
 -0.571  -0.569  -0.567  -0.466
  1 A2u   2 E2g   2 E2g   1 E1g                                                
 -- Singly Occupied (Vacant) --  
 -0.418
  1 E1g                                                                        
 -- Virtual --                   
 -0.218  -0.215  -0.098  -0.063  -0.046  -0.037  -0.012  -0.009
  1 E2u   1 E2u   3 A1g   1 B2g   0 xxx   0 xxx   3 E2g   3 E2g                
  0.008   0.084   0.085   0.091   0.094   0.267   0.311   0.311
  0 xxx   4 E2g   4 E2g   2 E1u   2 E1u   1 B2u   2 A2u   1 B1u                
  0.313   0.330   0.371   0.377   0.389   0.381   0.393   0.406
  4 A1g   0 xxx   0 xxx   0 xxx   0 xxx   0 xxx   0 xxx   3 E1u                
  0.406   0.454   0.458   0.536   0.625   0.632   0.641   0.664
  3 E1u   2 E2u   2 E2u   2 B2g   0 xxx   0 xxx   0 xxx   0 xxx                
  0.674   0.715   0.719   0.735   0.735   0.862   0.870   0.909
  0 xxx   4 E1u   4 E1u   0 xxx   1 A2g   5 E2g   5 E2g   5 E1u                
  0.913   0.980   1.025   1.167   1.213   1.217   1.244   1.248
  5 E1u   2 B1u   1 B1g   0 xxx   6 E2g   6 E2g   0 xxx   0 xxx                
  1.274   1.282   1.523   1.539   1.624   1.668   1.734   1.744
  2 E1g   2 E1g   5 A1g   2 B2u   6 A1g   3 B1u   6 E1u   6 E1u                
  1.801   1.808   1.896   1.902   1.901   1.907   2.055   2.062
  7 E2g   7 E2g   0 xxx   0 xxx   0 xxx   0 xxx   0 xxx   0 xxx                
  2.066   2.305   2.309   2.391   2.434   2.443   2.462   2.472
  0 xxx   8 E2g   8 E2g   1 A1u   9 E2g   9 E2g   7 E1u   7 E1u                
  2.527   2.762   3.130   3.829   3.871   3.884   4.087   4.098
  4 B1u   2 A2g   5 B1u   7 A1g   8 E1u   8 E1u  10 E2g  10 E2g                
  4.419
  6 B1u                                                                        
 --------------------------------------------------------------
 

                        RESTRICTED (RHF) MOLECULAR ORBITAL COEFFICIENTS
                         1         2         3         4         5         6
 eigenvalues:        -10.449   -10.449   -10.448   -10.448   -10.416   -10.416
   1  H 1   s       -0.00002   0.00000   0.00011   0.00000   0.00036  -0.00027
   2  H 1   s        0.00046   0.00000   0.00128   0.00000  -0.00006   0.00091
   3  C 1   s        0.00787  -0.00006   0.00797   0.00001  -0.69825   0.70572
   4  C 1   s       -0.00014   0.00000  -0.00033   0.00000  -0.03512   0.03513
   5  C 1   px       0.00026   0.00000   0.00018   0.00000   0.00042  -0.00036
   6  C 1   py       0.00000  -0.00028   0.00000   0.00021   0.00000   0.00000
   7  C 1   pz       0.00000   0.00000   0.00000   0.00000   0.00000   0.00000
   8  C 1   s        0.00442  -0.00003   0.01234   0.00002   0.01597  -0.01078
   9  C 1   px      -0.00187   0.00001  -0.00639  -0.00001  -0.00531   0.00201
  10  C 1   py       0.00001   0.00140   0.00000  -0.00135   0.00000   0.00000
  11  C 1   pz       0.00000   0.00000   0.00000   0.00000   0.00000   0.00000
  12  C 1   dxx     -0.00026   0.00000  -0.00037   0.00000   0.00649  -0.00660
  13  C 1   dxy      0.00000   0.00006   0.00000  -0.00013   0.00000   0.00000
  14  C 1   dyy     -0.00045   0.00000  -0.00055   0.00000   0.00640  -0.00646
  15  C 1   dxz      0.00000   0.00000   0.00000   0.00000   0.00000   0.00000
  16  C 1   dyz      0.00000   0.00000   0.00000   0.00000   0.00000   0.00000
  17  C 1   dzz     -0.00027   0.00000  -0.00032   0.00000   0.00659  -0.00681
  18  C 2   s        0.00787  -0.00006  -0.00797  -0.00001   0.70579   0.69818
  19  C 2   s       -0.00014   0.00000   0.00033   0.00000   0.03550   0.03475
  20  C 2   px      -0.00026   0.00000   0.00018   0.00000   0.00042   0.00035
  21  C 2   py       0.00000  -0.00028   0.00000  -0.00021   0.00000   0.00000
  22  C 2   pz       0.00000   0.00000   0.00000   0.00000   0.00000   0.00000
  23  C 2   s        0.00442  -0.00003  -0.01234  -0.00002  -0.01608  -0.01061
  24  C 2   px       0.00187  -0.00001  -0.00639  -0.00001  -0.00533  -0.00196
  25  C 2   py       0.00001   0.00140   0.00000   0.00135   0.00000   0.00000
  26  C 2   pz       0.00000   0.00000   0.00000   0.00000   0.00000   0.00000
  27  C 2   dxx     -0.00026   0.00000   0.00037   0.00000  -0.00656  -0.00653
  28  C 2   dxy      0.00000  -0.00006   0.00000  -0.00013   0.00000   0.00000
  29  C 2   dyy     -0.00045   0.00000   0.00055   0.00000  -0.00647  -0.00639
  30  C 2   dxz      0.00000   0.00000   0.00000   0.00000   0.00000   0.00000
  31  C 2   dyz      0.00000   0.00000   0.00000   0.00000   0.00000   0.00000
  32  C 2   dzz     -0.00027   0.00000   0.00032   0.00000  -0.00666  -0.00674
  33  C 3   s        0.49984   0.49275   0.49726  -0.49575   0.00597  -0.00587
  34  C 3   s        0.02459   0.02439   0.02531  -0.02486   0.00080  -0.00064
  35  C 3   px      -0.00003  -0.00002  -0.00042   0.00038   0.00012  -0.00004
  36  C 3   py      -0.00007  -0.00017  -0.00018   0.00019  -0.00023   0.00025
  37  C 3   pz       0.00000   0.00000   0.00000   0.00000   0.00000   0.00000
  38  C 3   s       -0.00535  -0.00485  -0.01745   0.00966  -0.00916   0.00327
  39  C 3   px      -0.00030  -0.00034   0.00409  -0.00174   0.00148   0.00023
  40  C 3   py       0.00081   0.00072   0.00549  -0.00145   0.00451  -0.00161
  41  C 3   pz       0.00000   0.00000   0.00000   0.00000   0.00000   0.00000
  42  C 3   dxx     -0.00485  -0.00481  -0.00428   0.00428   0.00023  -0.00013
  43  C 3   dxy     -0.00001   0.00001  -0.00005   0.00006  -0.00011   0.00014
  44  C 3   dyy     -0.00474  -0.00472  -0.00447   0.00455   0.00025  -0.00021
  45  C 3   dxz      0.00000   0.00000   0.00000   0.00000   0.00000   0.00000
  46  C 3   dyz      0.00000   0.00000   0.00000   0.00000   0.00000   0.00000
  47  C 3   dzz     -0.00492  -0.00478  -0.00457   0.00470   0.00012  -0.00008
  48  C 4   s        0.49270  -0.49990   0.49580   0.49721   0.00597  -0.00587
  49  C 4   s        0.02424  -0.02474   0.02523   0.02493   0.00080  -0.00064
  50  C 4   px      -0.00003   0.00002  -0.00042  -0.00038   0.00012  -0.00004
  51  C 4   py       0.00007  -0.00017   0.00018   0.00019   0.00023  -0.00025
  52  C 4   pz       0.00000   0.00000   0.00000   0.00000   0.00000   0.00000
  53  C 4   s       -0.00528   0.00493  -0.01742  -0.00972  -0.00916   0.00327
  54  C 4   px      -0.00029   0.00034   0.00409   0.00175   0.00148   0.00023
  55  C 4   py      -0.00080   0.00073  -0.00549  -0.00147  -0.00451   0.00161
  56  C 4   pz       0.00000   0.00000   0.00000   0.00000   0.00000   0.00000
  57  C 4   dxx     -0.00478   0.00488  -0.00426  -0.00429   0.00023  -0.00013
  58  C 4   dxy      0.00001   0.00001   0.00005   0.00006   0.00011  -0.00014
  59  C 4   dyy     -0.00467   0.00479  -0.00446  -0.00456   0.00025  -0.00021
  60  C 4   dxz      0.00000   0.00000   0.00000   0.00000   0.00000   0.00000
  61  C 4   dyz      0.00000   0.00000   0.00000   0.00000   0.00000   0.00000
  62  C 4   dzz     -0.00486   0.00486  -0.00456  -0.00471   0.00012  -0.00008
  63  C 5   s        0.49267  -0.49987  -0.49582  -0.49724  -0.00603  -0.00580
[...]
  40  C 3   py      -0.05524  -0.03859   0.09515  -0.03931   0.00000   0.08781
  41  C 3   pz       0.00000   0.00000   0.00000   0.00000   0.12984   0.00000
  42  C 3   dxx      0.00741  -0.00493  -0.00486  -0.01038   0.00000  -0.00038
  43  C 3   dxy     -0.01553  -0.00137   0.00222  -0.00640   0.00000   0.01936
  44  C 3   dyy     -0.00481   0.00494   0.01174   0.00579   0.00000   0.00754
  45  C 3   dxz      0.00000   0.00000   0.00000   0.00000  -0.00654   0.00000
  46  C 3   dyz      0.00000   0.00000   0.00000   0.00000  -0.00952   0.00000
  47  C 3   dzz      0.00429   0.00005   0.00035  -0.00078   0.00000  -0.00108
  48  C 4   s        0.05817   0.00210  -0.01451  -0.01847   0.00000  -0.00142
  49  C 4   s       -0.12261  -0.00339   0.03647   0.04227   0.00000   0.01131
  50  C 4   px      -0.06866  -0.25731  -0.14960  -0.00746   0.00000   0.01410
  51  C 4   py       0.14967  -0.12098   0.23109   0.15204   0.00000   0.24896
  52  C 4   pz       0.00000   0.00000   0.00000   0.00000   0.23151   0.00000
  53  C 4   s       -0.16787  -0.00792   0.04975   0.06386   0.00000  -0.02750
  54  C 4   px      -0.02430  -0.08099  -0.03314  -0.03776   0.00000   0.01714
  55  C 4   py       0.05524  -0.03859   0.09515   0.03931   0.00000   0.08781
  56  C 4   pz       0.00000   0.00000   0.00000   0.00000   0.12984   0.00000
  57  C 4   dxx      0.00741   0.00493   0.00486  -0.01038   0.00000   0.00038
  58  C 4   dxy      0.01553  -0.00137   0.00222   0.00640   0.00000   0.01936
  59  C 4   dyy     -0.00481  -0.00494  -0.01174   0.00579   0.00000  -0.00754
  60  C 4   dxz      0.00000   0.00000   0.00000   0.00000  -0.00654   0.00000
  61  C 4   dyz      0.00000   0.00000   0.00000   0.00000   0.00952   0.00000
  62  C 4   dzz      0.00429  -0.00005  -0.00035  -0.00078   0.00000   0.00108
  63  C 5   s       -0.05818   0.00210  -0.01451   0.01847   0.00000   0.00142
  64  C 5   s        0.12261  -0.00339   0.03647  -0.04227   0.00000  -0.01131
  65  C 5   px      -0.06866   0.25731   0.14960  -0.00746   0.00000   0.01410
  66  C 5   py      -0.14967  -0.12098   0.23109  -0.15204   0.00000  -0.24896
  67  C 5   pz       0.00000   0.00000   0.00000   0.00000   0.23151   0.00000
  68  C 5   s        0.16787  -0.00792   0.04975  -0.06386   0.00000   0.02750
  69  C 5   px      -0.02430   0.08099   0.03314  -0.03776   0.00000   0.01714
  70  C 5   py      -0.05524  -0.03859   0.09515  -0.03931   0.00000  -0.08781
  71  C 5   pz       0.00000   0.00000   0.00000   0.00000   0.12984   0.00000
  72  C 5   dxx     -0.00741   0.00493   0.00486   0.01038   0.00000  -0.00038
  73  C 5   dxy      0.01553   0.00137  -0.00222   0.00640   0.00000   0.01936
  74  C 5   dyy      0.00481  -0.00494  -0.01174  -0.00579   0.00000   0.00754
  75  C 5   dxz      0.00000   0.00000   0.00000   0.00000   0.00654   0.00000
  76  C 5   dyz      0.00000   0.00000   0.00000   0.00000   0.00952   0.00000
  77  C 5   dzz     -0.00429  -0.00005  -0.00035   0.00078   0.00000  -0.00108
  78  C 6   s       -0.05817  -0.00210   0.01451   0.01847   0.00000  -0.00142
  79  C 6   s        0.12261   0.00339  -0.03647  -0.04227   0.00000   0.01131
  80  C 6   px      -0.06866  -0.25731  -0.14960  -0.00746   0.00000  -0.01410
  81  C 6   py       0.14967  -0.12098   0.23109   0.15204   0.00000  -0.24896
  82  C 6   pz       0.00000   0.00000   0.00000   0.00000   0.23151   0.00000
  83  C 6   s        0.16787   0.00792  -0.04975  -0.06386   0.00000  -0.02750
  84  C 6   px      -0.02430  -0.08099  -0.03314  -0.03776   0.00000  -0.01714
  85  C 6   py       0.05524  -0.03859   0.09515   0.03931   0.00000  -0.08781
  86  C 6   pz       0.00000   0.00000   0.00000   0.00000   0.12984   0.00000
  87  C 6   dxx     -0.00741  -0.00493  -0.00486   0.01038   0.00000   0.00038
  88  C 6   dxy     -0.01553   0.00137  -0.00222  -0.00640   0.00000   0.01936
  89  C 6   dyy      0.00481   0.00494   0.01174  -0.00579   0.00000  -0.00754
  90  C 6   dxz      0.00000   0.00000   0.00000   0.00000   0.00654   0.00000
  91  C 6   dyz      0.00000   0.00000   0.00000   0.00000  -0.00952   0.00000
  92  C 6   dzz     -0.00429   0.00005   0.00035   0.00078   0.00000   0.00108
  93  H 2   s       -0.14939   0.01569   0.14244  -0.05922   0.00000   0.14683
  94  H 2   s       -0.07755   0.01022   0.09633  -0.04334   0.00000   0.12323
  95  H 3   s       -0.14939  -0.01569  -0.14244  -0.05922   0.00000  -0.14683
  96  H 3   s       -0.07755  -0.01022  -0.09633  -0.04334   0.00000  -0.12323
  97  H 4   s        0.14939  -0.01569  -0.14244   0.05922   0.00000   0.14683
  98  H 4   s        0.07755  -0.01022  -0.09633   0.04334   0.00000   0.12323
  99  H 5   s        0.14939   0.01569   0.14244   0.05922   0.00000  -0.14683
 100  H 5   s        0.07755   0.01022   0.09633   0.04334   0.00000  -0.12323
 101  H 6   s       -0.11011   0.00000   0.00000   0.18668   0.00000   0.00000
 102  H 6   s       -0.05304   0.00000   0.00000   0.12793   0.00000   0.00000
                        19        20        21        22        23        24
 eigenvalues:         -0.570    -0.478    -0.504    -0.251    -0.232    -0.100
   1  H 1   s        0.17718   0.00000   0.00000   0.00000   0.00000  -0.07658
   2  H 1   s        0.14513   0.00000   0.00000   0.00000   0.00000  -0.64232
   3  C 1   s       -0.00478   0.00000   0.00000   0.00000   0.00000  -0.03440
   4  C 1   s        0.00220   0.00000   0.00000   0.00000   0.00000   0.07791
   5  C 1   px       0.24617   0.00000   0.00000   0.00000   0.00000   0.10567
   6  C 1   py       0.00000   0.00000   0.00000   0.00000   0.00000   0.00000
   7  C 1   pz       0.00000  -0.33984   0.00000   0.00000  -0.37911   0.00000
   8  C 1   s        0.04558   0.00000   0.00000   0.00000   0.00000   0.41073
   9  C 1   px       0.08422   0.00000   0.00000   0.00000   0.00000   0.25189
  10  C 1   py       0.00000   0.00000   0.00000   0.00000   0.00000   0.00000
  11  C 1   pz       0.00000  -0.22698   0.00000   0.00000  -0.45957   0.00000
  12  C 1   dxx      0.02234   0.00000   0.00000   0.00000   0.00000  -0.02413
  13  C 1   dxy      0.00000   0.00000   0.00000   0.00000   0.00000   0.00000
  14  C 1   dyy     -0.01484   0.00000   0.00000   0.00000   0.00000   0.01705
  15  C 1   dxz      0.00000   0.00816   0.00000   0.00000  -0.00757   0.00000
  16  C 1   dyz      0.00000   0.00000   0.01785  -0.02984   0.00000   0.00000
  17  C 1   dzz     -0.00124   0.00000   0.00000   0.00000   0.00000   0.00303
  18  C 2   s       -0.00478   0.00000   0.00000   0.00000   0.00000  -0.03440
  19  C 2   s        0.00220   0.00000   0.00000   0.00000   0.00000   0.07791
  20  C 2   px      -0.24617   0.00000   0.00000   0.00000   0.00000  -0.10567
  21  C 2   py       0.00000   0.00000   0.00000   0.00000   0.00000   0.00000
  22  C 2   pz       0.00000   0.33984   0.00000   0.00000  -0.37911   0.00000
  23  C 2   s        0.04558   0.00000   0.00000   0.00000   0.00000   0.41073
  24  C 2   px      -0.08422   0.00000   0.00000   0.00000   0.00000  -0.25189
  25  C 2   py       0.00000   0.00000   0.00000   0.00000   0.00000   0.00000
  26  C 2   pz       0.00000   0.22698   0.00000   0.00000  -0.45957   0.00000
  27  C 2   dxx      0.02234   0.00000   0.00000   0.00000   0.00000  -0.02413
  28  C 2   dxy      0.00000   0.00000   0.00000   0.00000   0.00000   0.00000
  29  C 2   dyy     -0.01484   0.00000   0.00000   0.00000   0.00000   0.01705
  30  C 2   dxz      0.00000   0.00816   0.00000   0.00000   0.00757   0.00000
  31  C 2   dyz      0.00000   0.00000   0.01785   0.02984   0.00000   0.00000
  32  C 2   dzz     -0.00124   0.00000   0.00000   0.00000   0.00000   0.00303
  33  C 3   s        0.00212   0.00000   0.00000   0.00000   0.00000  -0.04048
  34  C 3   s        0.00050   0.00000   0.00000   0.00000   0.00000   0.08880
  35  C 3   px      -0.25075   0.00000   0.00000   0.00000   0.00000   0.06687
  36  C 3   py       0.01514   0.00000   0.00000   0.00000   0.00000   0.10561
  37  C 3   pz       0.00000  -0.18279   0.30768  -0.33414   0.18771   0.00000
  38  C 3   s       -0.01904   0.00000   0.00000   0.00000   0.00000   0.51801
  39  C 3   px      -0.08723   0.00000   0.00000   0.00000   0.00000   0.15660
  40  C 3   py       0.01068   0.00000   0.00000   0.00000   0.00000   0.24058
  41  C 3   pz       0.00000  -0.12635   0.19810  -0.38488   0.22250   0.00000
  42  C 3   dxx      0.01176   0.00000   0.00000   0.00000   0.00000   0.00620
  43  C 3   dxy     -0.00550   0.00000   0.00000   0.00000   0.00000  -0.02127
  44  C 3   dyy     -0.01493   0.00000   0.00000   0.00000   0.00000  -0.01436
  45  C 3   dxz      0.00000  -0.01259  -0.01370  -0.01648  -0.02260   0.00000
  46  C 3   dyz      0.00000   0.01152   0.00000   0.00027   0.01892   0.00000
  47  C 3   dzz      0.00049   0.00000   0.00000   0.00000   0.00000   0.00340
  48  C 4   s        0.00212   0.00000   0.00000   0.00000   0.00000  -0.04048
  49  C 4   s        0.00050   0.00000   0.00000   0.00000   0.00000   0.08880
  50  C 4   px      -0.25075   0.00000   0.00000   0.00000   0.00000   0.06687
  51  C 4   py      -0.01515   0.00000   0.00000   0.00000   0.00000  -0.10561
  52  C 4   pz       0.00000  -0.18279  -0.30769   0.33414   0.18770   0.00000
  53  C 4   s       -0.01904   0.00000   0.00000   0.00000   0.00000   0.51801
  54  C 4   px      -0.08723   0.00000   0.00000   0.00000   0.00000   0.15660
  55  C 4   py      -0.01068   0.00000   0.00000   0.00000   0.00000  -0.24058
  56  C 4   pz       0.00000  -0.12635  -0.19810   0.38488   0.22250   0.00000
  57  C 4   dxx      0.01176   0.00000   0.00000   0.00000   0.00000   0.00620
  58  C 4   dxy      0.00550   0.00000   0.00000   0.00000   0.00000   0.02127
  59  C 4   dyy     -0.01493   0.00000   0.00000   0.00000   0.00000  -0.01436
  60  C 4   dxz      0.00000  -0.01259   0.01370   0.01648  -0.02260   0.00000
  61  C 4   dyz      0.00000  -0.01152   0.00000   0.00027  -0.01892   0.00000
  62  C 4   dzz      0.00049   0.00000   0.00000   0.00000   0.00000   0.00340
  63  C 5   s        0.00212   0.00000   0.00000   0.00000   0.00000  -0.04048
  64  C 5   s        0.00050   0.00000   0.00000   0.00000   0.00000   0.08880
  65  C 5   px       0.25075   0.00000   0.00000   0.00000   0.00000  -0.06687
  66  C 5   py      -0.01514   0.00000   0.00000   0.00000   0.00000  -0.10561
  67  C 5   pz       0.00000   0.18279  -0.30768  -0.33414   0.18771   0.00000
  68  C 5   s       -0.01904   0.00000   0.00000   0.00000   0.00000   0.51801
  69  C 5   px       0.08723   0.00000   0.00000   0.00000   0.00000  -0.15660
  70  C 5   py      -0.01068   0.00000   0.00000   0.00000   0.00000  -0.24058
  71  C 5   pz       0.00000   0.12635  -0.19810  -0.38488   0.22250   0.00000
  72  C 5   dxx      0.01176   0.00000   0.00000   0.00000   0.00000   0.00620
  73  C 5   dxy     -0.00550   0.00000   0.00000   0.00000   0.00000  -0.02127
  74  C 5   dyy     -0.01493   0.00000   0.00000   0.00000   0.00000  -0.01436
  75  C 5   dxz      0.00000  -0.01259  -0.01370   0.01648   0.02260   0.00000
  76  C 5   dyz      0.00000   0.01152   0.00000  -0.00027  -0.01892   0.00000
  77  C 5   dzz      0.00049   0.00000   0.00000   0.00000   0.00000   0.00340
  78  C 6   s        0.00212   0.00000   0.00000   0.00000   0.00000  -0.04048
  79  C 6   s        0.00050   0.00000   0.00000   0.00000   0.00000   0.08880
  80  C 6   px       0.25075   0.00000   0.00000   0.00000   0.00000  -0.06687
  81  C 6   py       0.01515   0.00000   0.00000   0.00000   0.00000   0.10561
  82  C 6   pz       0.00000   0.18279   0.30769   0.33414   0.18770   0.00000
  83  C 6   s       -0.01904   0.00000   0.00000   0.00000   0.00000   0.51801
  84  C 6   px       0.08723   0.00000   0.00000   0.00000   0.00000  -0.15660
  85  C 6   py       0.01068   0.00000   0.00000   0.00000   0.00000   0.24058
  86  C 6   pz       0.00000   0.12635   0.19810   0.38488   0.22250   0.00000
  87  C 6   dxx      0.01176   0.00000   0.00000   0.00000   0.00000   0.00620
  88  C 6   dxy      0.00550   0.00000   0.00000   0.00000   0.00000   0.02127
  89  C 6   dyy     -0.01493   0.00000   0.00000   0.00000   0.00000  -0.01436
  90  C 6   dxz      0.00000  -0.01259   0.01370  -0.01648   0.02260   0.00000
  91  C 6   dyz      0.00000  -0.01152   0.00000  -0.00027   0.01892   0.00000
  92  C 6   dzz      0.00049   0.00000   0.00000   0.00000   0.00000   0.00340
  93  H 2   s       -0.08425   0.00000   0.00000   0.00000   0.00000  -0.08299
  94  H 2   s       -0.07222   0.00000   0.00000   0.00000   0.00000  -0.73439
  95  H 3   s       -0.08425   0.00000   0.00000   0.00000   0.00000  -0.08299
  96  H 3   s       -0.07222   0.00000   0.00000   0.00000   0.00000  -0.73439
  97  H 4   s       -0.08425   0.00000   0.00000   0.00000   0.00000  -0.08299
  98  H 4   s       -0.07222   0.00000   0.00000   0.00000   0.00000  -0.73439
  99  H 5   s       -0.08425   0.00000   0.00000   0.00000   0.00000  -0.08299
 100  H 5   s       -0.07222   0.00000   0.00000   0.00000   0.00000  -0.73439
 101  H 6   s        0.17718   0.00000   0.00000   0.00000   0.00000  -0.07658
 102  H 6   s        0.14513   0.00000   0.00000   0.00000   0.00000  -0.64232
                        25        26
 eigenvalues:         -0.084    -0.048
   1  H 1   s        0.00000   0.00000
   2  H 1   s        0.00000   0.00000
   3  C 1   s        0.00000   0.00000
   4  C 1   s        0.00000   0.00000
   5  C 1   px       0.00000   0.00000
   6  C 1   py       0.00000  -0.05232
   7  C 1   pz       0.30952   0.00000
   8  C 1   s        0.00000   0.00000
   9  C 1   px       0.00000   0.00000
  10  C 1   py       0.00000   0.10026
  11  C 1   pz       0.49465   0.00000
  12  C 1   dxx      0.00000   0.00000
  13  C 1   dxy      0.00000  -0.01398
  14  C 1   dyy      0.00000   0.00000
  15  C 1   dxz      0.01476   0.00000
  16  C 1   dyz      0.00000   0.00000
  17  C 1   dzz      0.00000   0.00000
  18  C 2   s        0.00000   0.00000
  19  C 2   s        0.00000   0.00000
  20  C 2   px       0.00000   0.00000
  21  C 2   py       0.00000  -0.05232
  22  C 2   pz      -0.30952   0.00000
  23  C 2   s        0.00000   0.00000
  24  C 2   px       0.00000   0.00000
  25  C 2   py       0.00000   0.10026
  26  C 2   pz      -0.49465   0.00000
  27  C 2   dxx      0.00000   0.00000
  28  C 2   dxy      0.00000   0.01398
  29  C 2   dyy      0.00000   0.00000
  30  C 2   dxz      0.01476   0.00000
  31  C 2   dyz      0.00000   0.00000
  32  C 2   dzz      0.00000   0.00000
  33  C 3   s        0.00000   0.03157
  34  C 3   s        0.00000  -0.04404
  35  C 3   px       0.00000  -0.09064
  36  C 3   py       0.00000  -0.20760
  37  C 3   pz      -0.30649   0.00000
  38  C 3   s        0.00000  -0.70101
  39  C 3   px       0.00000  -0.28606
  40  C 3   py       0.00000  -0.39273
  41  C 3   pz      -0.47757   0.00000
  42  C 3   dxx      0.00000  -0.00051
  43  C 3   dxy      0.00000   0.01904
  44  C 3   dyy      0.00000   0.00244
  45  C 3   dxz     -0.00673   0.00000
  46  C 3   dyz     -0.01544   0.00000
  47  C 3   dzz      0.00000   0.00025
  48  C 4   s        0.00000  -0.03157
  49  C 4   s        0.00000   0.04404
  50  C 4   px       0.00000   0.09064
  51  C 4   py       0.00000  -0.20760
  52  C 4   pz      -0.30649   0.00000
  53  C 4   s        0.00000   0.70102
  54  C 4   px       0.00000   0.28606
  55  C 4   py       0.00000  -0.39274
  56  C 4   pz      -0.47757   0.00000
  57  C 4   dxx      0.00000   0.00051
  58  C 4   dxy      0.00000   0.01904
  59  C 4   dyy      0.00000  -0.00244
  60  C 4   dxz     -0.00673   0.00000
  61  C 4   dyz      0.01544   0.00000
  62  C 4   dzz      0.00000  -0.00025
  63  C 5   s        0.00000  -0.03157
  64  C 5   s        0.00000   0.04404
  65  C 5   px       0.00000  -0.09064
  66  C 5   py       0.00000  -0.20760
  67  C 5   pz       0.30649   0.00000
  68  C 5   s        0.00000   0.70101
  69  C 5   px       0.00000  -0.28606
  70  C 5   py       0.00000  -0.39273
  71  C 5   pz       0.47757   0.00000
  72  C 5   dxx      0.00000   0.00051
  73  C 5   dxy      0.00000  -0.01904
  74  C 5   dyy      0.00000  -0.00244
  75  C 5   dxz     -0.00673   0.00000
  76  C 5   dyz     -0.01544   0.00000
  77  C 5   dzz      0.00000  -0.00025
  78  C 6   s        0.00000   0.03157
  79  C 6   s        0.00000  -0.04404
  80  C 6   px       0.00000   0.09064
  81  C 6   py       0.00000  -0.20760
  82  C 6   pz       0.30649   0.00000
  83  C 6   s        0.00000  -0.70101
  84  C 6   px       0.00000   0.28606
  85  C 6   py       0.00000  -0.39274
  86  C 6   pz       0.47757   0.00000
  87  C 6   dxx      0.00000  -0.00051
  88  C 6   dxy      0.00000  -0.01904
  89  C 6   dyy      0.00000   0.00244
  90  C 6   dxz     -0.00673   0.00000
  91  C 6   dyz      0.01544   0.00000
  92  C 6   dzz      0.00000   0.00025
  93  H 2   s        0.00000   0.07009
  94  H 2   s        0.00000   1.00377
  95  H 3   s        0.00000  -0.07009
  96  H 3   s        0.00000  -1.00377
  97  H 4   s        0.00000  -0.07009
  98  H 4   s        0.00000  -1.00377
  99  H 5   s        0.00000   0.07009
 100  H 5   s        0.00000   1.00377
 101  H 6   s        0.00000   0.00000
 102  H 6   s        0.00000   0.00000
 
          Ground-State Mulliken Net Atomic Charges

     Atom                 Charge (a.u.)
  ----------------------------------------
      1 H                     0.234276
      2 C                    -0.113735
      3 C                    -0.113735
      4 C                    -0.060712
      5 C                    -0.060712
      6 C                    -0.060712
      7 C                    -0.060712
      8 H                     0.250441
      9 H                     0.250441
     10 H                     0.250441
     11 H                     0.250441
     12 H                     0.234276
  ----------------------------------------
  Sum of atomic charges =     1.000000

 -----------------------------------------------------------------
                    Cartesian Multipole Moments
 -----------------------------------------------------------------
    Charge (ESU x 10^10)
                 4.8032
    Dipole Moment (Debye)
         X       0.0000      Y       0.0000      Z       0.0000
       Tot       0.0000
    Quadrupole Moments (Debye-Ang)
        XX     -21.3884     XY       0.0000     YY     -18.1700
        XZ       0.0000     YZ       0.0000     ZZ     -34.8952
    Octapole Moments (Debye-Ang^2)
       XXX       0.0000    XXY       0.0000    XYY       0.0000
       YYY       0.0000    XXZ       0.0000    XYZ       0.0000
       YYZ       0.0000    XZZ       0.0000    YZZ       0.0000
       ZZZ       0.0000
    Hexadecapole Moments (Debye-Ang^3)
      XXXX    -216.6534   XXXY       0.0000   XXYY     -68.8175
      XYYY       0.0000   YYYY    -203.9164   XXXZ       0.0000
      XXYZ       0.0000   XYYZ       0.0000   YYYZ       0.0000
      XXZZ     -55.8559   XYZZ       0.0000   YYZZ     -52.8806
      XZZZ       0.0000   YZZZ       0.0000   ZZZZ     -34.3117
 -----------------------------------------------------------------
Archival summary:
1\1\node08\OPT\ROProcedureUnspecified\6-31G*\C6H6(1+,2)\rkanters\2009Wed42009\0\\#,OPT,ROProcedureUnspecified,6-31G*,\\1,2\C\H,1,1.08569\C,1,1.4109,2,120\H,3,1.08569,1,120,2,0,0\C,3,1.4109,1,120,2,-180,0\H,5,1.08569,3,120,1,-180,0\C,1,1.4109,2,120,3,-180,0\H,7,1.08569,1,120,2,0,0\C,7,1.4109,1,120,2,-180,0\H,9,1.08569,7,120,1,-180,0\C,9,1.4109,7,120,1,0,0\H,11,1.08569,9,120,7,-180,0\\\@

 Total job time:  229.79s(wall), 248.28s(cpu) 
 Wed Mar  4 18:07:25 2009

        *************************************************************
        *                                                           *
        *  Thank you very much for using Q-Chem.  Have a nice day.  *
        *                                                           *
        *************************************************************


0 sent ACK to 0 
now end server 0 ... 
