You are running Q-Chem version: 2.1.0.2
                  Welcome to Q-Chem
     A Quantum Leap Into The Future Of Chemistry

 J. Kong, C. A. White, A. I. Krylov, C. D. Sherrill,
 R. D. Adamson, T. R. Furlani, M. S. Lee, A. M. Lee,
 S. R. Gwaltney, T. R. Adams, C. Ochsenfeld, A. T. B. Gilbert,
 G. S. Kedziora,  V. A. Rassolov, D. R. Maurice, N. Nair,
 Y. Shao, N. A. Besley, P. E. Maslen, J. P. Dombroski,
 H. Dachsel, W. M. Zhang, P. P. Korambath, J. Baker,
 E. F. C. Byrd, T. Van Voorhis, M. Oumi, S. Hirata,
 C. P. Hsu, N. Ishikawa, J. Florian, A. Warshel,
 B. G. Johnson, P. M. W. Gill, M. Head-Gordon, J. A. Pople,
 Q-Chem, Version 2.0, Q-Chem, Inc., Export, PA (2000).


 Intel x86 Linux Version

--------------------------------------------------------------
User input:
--------------------------------------------------------------
$molecule
0 1
6           0.050034    0.664824    0.000000
8           0.050034   -0.768176    0.000000
1          -0.912360   -1.004562    0.000000
1           1.090341    0.996828    0.000000
1          -0.439230    1.082096    0.886301
1          -0.439230    1.082096   -0.886301
$end

$rem
 jobtype opt
 exchange hf
 basis sto-3g
$end

--------------------------------------------------------------
Processing $rem in /usr/local/share/qchem2.1/config/preferences.
 ----------------------------------------------------
       Standard Nuclear Orientation (Angstroms)
    I     Atom         X            Y            Z
 ----------------------------------------------------
    1      C       0.666490    -0.016921     0.000000
    2      O      -0.759279     0.126854     0.000000
    3      H      -1.091031    -0.806967     0.000000
    4      H       1.101194     0.984826     0.000000
    5      H       1.032567    -0.545582    -0.886301
    6      H       1.032567    -0.545582     0.886301
 ----------------------------------------------------
 Molecular Point Group                 Cs    NOp =  2
 Largest Abelian Subgroup              Cs    NOp =  2
 Nuclear Repulsion Energy =    39.9728834309 hartrees
 There are        9 alpha and        9 beta electrons
 Requested basis set is STO-3G
 There are 8 shells and 14 basis functions
 Standard Electronic Orientation quadrupole field applied
 Nucleus-field energy     =     0.0000000042 hartrees
 A cutoff of  1.0D-11 yielded     36 shell pairs
 There are    117 function pairs
 Smallest overlap matrix eigenvalue = 2.33E-01
 Multipole matrices computed through 2nd order
 Guess from superposition of atomic densities
 Warning:  Energy on first SCF cycle will be non-variational
 A restricted Hartree-Fock SCF calculation will be
 performed using Pulay DIIS extrapolation
 SCF converges when DIIS error is below 1.0E-08
 ---------------------------------------
  Cycle       Energy         DIIS Error
 ---------------------------------------
    1    -112.9398582727      2.75E-01
    2    -113.4993464650      3.66E-02
    3    -113.5464176426      9.40E-03
    4    -113.5490427244      1.69E-03
    5    -113.5491910572      1.64E-04
    6    -113.5491923880      3.86E-05
    7    -113.5491924815      3.96E-06
    8    -113.5491924824      5.32E-07
    9    -113.5491924824      1.82E-07
   10    -113.5491924824      2.38E-08
   11    -113.5491924824      6.33E-09 Convergence criterion met
 ---------------------------------------
 SCF time:  CPU 0.00 s  wall 1.00 s
 Analysis of SCF Wavefunction

 --------------------------------------------------------------
             Orbital Energies (a.u.) and Symmetries
 --------------------------------------------------------------

 Alpha MOs, Restricted
 -- Occupied --                  
-20.263 -11.086  -1.279  -0.877  -0.611  -0.571  -0.517  -0.419
  1 A'    2 A'    3 A'    4 A'    5 A'    1 A"    6 A'    7 A'                 
 -0.360
  2 A"                                                                         
 -- Virtual --                   
  0.573   0.650   0.697   0.723   0.734
  8 A'    9 A'    3 A"   10 A'   11 A'                                         

 Beta MOs, Restricted
 -- Occupied --                  
-20.263 -11.086  -1.279  -0.877  -0.611  -0.571  -0.517  -0.419
  1 A'    2 A'    3 A'    4 A'    5 A'    1 A"    6 A'    7 A'                 
 -0.360
  2 A"                                                                         
 -- Virtual --                   
  0.573   0.650   0.697   0.723   0.734
  8 A'    9 A'    3 A"   10 A'   11 A'                                         
 --------------------------------------------------------------

         Mulliken Net Atomic Charges

     Atom                 Charge (a.u.)
  ----------------------------------------
      1 C                    -0.071451
      2 O                    -0.280047
      3 H                     0.174099
      4 H                     0.069465
      5 H                     0.053967
      6 H                     0.053967
  ----------------------------------------
  Sum of atomic charges =     0.000000

 -----------------------------------------------------------------
                    Cartesian Multipole Moments
 -----------------------------------------------------------------
    Charge (ESU x 10^10)
                 0.0000
    Dipole Moment (Debye)
         X       0.7383      Y      -1.3171      Z       0.0000
       Tot       1.5100
    Quadrupole Moments (Debye-Ang)
        XX     -12.2283     XY       1.5500     YY     -11.3344
        XZ       0.0000     YZ       0.0000     ZZ     -12.3773
    Octapole Moments (Debye-Ang^2)
       XXX      -4.9903    XXY      -1.2452    XYY      -1.8864
       YYY       0.1653    XXZ       0.0000    XYZ       0.0000
       YYZ       0.0000    XZZ      -1.0839    YZZ      -0.3253
       ZZZ       0.0000
    Hexadecapole Moments (Debye-Ang^3)
      XXXX     -56.4045   XXXY       1.5552   XXYY     -11.2950
      XYYY       1.2327   YYYY     -17.3608   XXXZ       0.0000
      XXYZ       0.0000   XYYZ       0.0000   YYYZ       0.0000
      XXZZ     -11.9975   XYZZ      -0.5109   YYZZ      -5.5492
      XZZZ       0.0000   YZZZ       0.0000   ZZZZ     -15.4366
 -----------------------------------------------------------------
 Calculating analytic gradient of the SCF energy
 Gradient of SCF Energy
            1           2           3           4           5           6
    1  -0.0005217  -0.0002433   0.0001908   0.0003701   0.0001021   0.0001021
    2  -0.0005668  -0.0000401   0.0001068   0.0003559   0.0000721   0.0000721
    3   0.0000000  -0.0000000   0.0000000  -0.0000000   0.0000794  -0.0000794
 Max gradient component =       5.668E-04
 RMS gradient           =       2.368E-04
 Gradient time:  CPU 0.00 s  wall 1.00 s


** GEOMETRY OPTIMIZATION IN DELOCALIZED INTERNAL COORDINATES **
   Searching for a Minimum

   Optimization Cycle:   1

                       Coordinates (Angstroms)
     ATOM              X           Y           Z
    1  C           0.666490   -0.016921    0.000000
    2  O          -0.759279    0.126854    0.000000
    3  H          -1.091031   -0.806967    0.000000
    4  H           1.101194    0.984826    0.000000
    5  H           1.032567   -0.545582   -0.886301
    6  H           1.032567   -0.545582    0.886301
   Point Group: cs    Number of degrees of freedom:   8


   Energy is   -113.549192482


 Attempting to Generate Delocalized Internal Coordinates

  8 Hessian modes will be used to form the next step
  Hessian Eigenvalues:
     0.097310    0.160000    0.160000    0.160000    0.342412    0.345825
     0.405613    0.493064

 Minimum Search - Taking Simple RFO Step
 Searching for Lamda that Minimizes Along All modes
 Value Taken    Lamda =  -0.00000215
 Step Taken.  Stepsize is  0.003302

                             Maximum     Tolerance    Cnvgd?
         Gradient           0.000319      0.000300      NO
         Displacement       0.001724      0.001200      NO
         Energy change     *********      0.000001      NO


 New Cartesian Coordinates Obtained by Inverse Iteration

 Displacement from previous Coordinates is:  0.003305
 ----------------------------------------------------
       Standard Nuclear Orientation (Angstroms)
    I     Atom         X            Y            Z
 ----------------------------------------------------
    1      C       0.667241    -0.016873     0.000000
    2      O      -0.758466     0.126754     0.000000
    3      H      -1.091760    -0.806705     0.000000
    4      H       1.100195     0.984842     0.000000
    5      H       1.032649    -0.545696    -0.886605
    6      H       1.032649    -0.545696     0.886605
 ----------------------------------------------------
 Molecular Point Group                 Cs    NOp =  2
 Largest Abelian Subgroup              Cs    NOp =  2
 Nuclear Repulsion Energy =    39.9756247885 hartrees
 There are        9 alpha and        9 beta electrons
 Applying Cartesian multipole field
    Component          Value
    ---------          -----
     (2,0,0)        1.00000E-10
     (0,2,0)        2.00000E-10
     (0,0,2)       -3.00000E-10
 Nucleus-field energy     =     0.0000000042 hartrees
 Requested basis set is STO-3G
 There are 8 shells and 14 basis functions
 A cutoff of  1.0D-11 yielded     36 shell pairs
 There are    117 function pairs
 Smallest overlap matrix eigenvalue = 2.33E-01
 Multipole matrices computed through 2nd order
 Guess MOs from SCF MO coefficient file
 A restricted Hartree-Fock SCF calculation will be
 performed using Pulay DIIS extrapolation
 SCF converges when DIIS error is below 1.0E-08
 ---------------------------------------
  Cycle       Energy         DIIS Error
 ---------------------------------------
    1    -113.5494359321      1.79E-04
    2    -113.5491930506      3.88E-05
    3    -113.5491931151      1.20E-05
    4    -113.5491931232      4.03E-06
    5    -113.5491931243      4.06E-07
    6    -113.5491931243      7.63E-08
    7    -113.5491931243      1.64E-08
    8    -113.5491931243      6.62E-09 Convergence criterion met
 ---------------------------------------
 SCF time:  CPU 0.00 s  wall 0.00 s
 Analysis of SCF Wavefunction

 --------------------------------------------------------------
             Orbital Energies (a.u.) and Symmetries
 --------------------------------------------------------------

 Alpha MOs, Restricted
 -- Occupied --                  
-20.263 -11.086  -1.278  -0.877  -0.611  -0.571  -0.517  -0.419
  1 A'    2 A'    3 A'    4 A'    5 A'    1 A"    6 A'    7 A'                 
 -0.359
  2 A"                                                                         
 -- Virtual --                   
  0.573   0.651   0.697   0.723   0.735
  8 A'    9 A'    3 A"   10 A'   11 A'                                         

 Beta MOs, Restricted
 -- Occupied --                  
-20.263 -11.086  -1.278  -0.877  -0.611  -0.571  -0.517  -0.419
  1 A'    2 A'    3 A'    4 A'    5 A'    1 A"    6 A'    7 A'                 
 -0.359
  2 A"                                                                         
 -- Virtual --                   
  0.573   0.651   0.697   0.723   0.735
  8 A'    9 A'    3 A"   10 A'   11 A'                                         
 --------------------------------------------------------------

         Mulliken Net Atomic Charges

     Atom                 Charge (a.u.)
  ----------------------------------------
      1 C                    -0.071447
      2 O                    -0.280178
      3 H                     0.173972
      4 H                     0.069668
      5 H                     0.053993
      6 H                     0.053993
  ----------------------------------------
  Sum of atomic charges =     0.000000

 -----------------------------------------------------------------
                    Cartesian Multipole Moments
 -----------------------------------------------------------------
    Charge (ESU x 10^10)
                 0.0000
    Dipole Moment (Debye)
         X       0.7374      Y      -1.3166      Z       0.0000
       Tot       1.5091
    Quadrupole Moments (Debye-Ang)
        XX     -12.2262     XY       1.5500     YY     -11.3341
        XZ       0.0000     YZ       0.0000     ZZ     -12.3760
    Octapole Moments (Debye-Ang^2)
       XXX      -5.0186    XXY      -1.2465    XYY      -1.8923
       YYY       0.1678    XXZ       0.0000    XYZ       0.0000
       YYZ       0.0000    XZZ      -1.0894    YZZ      -0.3259
       ZZZ       0.0000
    Hexadecapole Moments (Debye-Ang^3)
      XXXX     -56.3994   XXXY       1.5547   XXYY     -11.2948
      XYYY       1.2323   YYYY     -17.3586   XXXZ       0.0000
      XXYZ       0.0000   XYYZ       0.0000   YYYZ       0.0000
      XXZZ     -11.9969   XYZZ      -0.5118   YYZZ      -5.5488
      XZZZ       0.0000   YZZZ       0.0000   ZZZZ     -15.4388
 -----------------------------------------------------------------
 Calculating analytic gradient of the SCF energy
 Gradient of SCF Energy
            1           2           3           4           5           6
    1   0.0001088   0.0001909  -0.0001359  -0.0000926  -0.0000356  -0.0000356
    2   0.0002676  -0.0000498  -0.0000461  -0.0001427  -0.0000145  -0.0000145
    3   0.0000000  -0.0000000   0.0000000  -0.0000000  -0.0000452   0.0000452
 Max gradient component =       2.676E-04
 RMS gradient           =       9.969E-05
 Gradient time:  CPU 0.00 s  wall 0.00 s

 Cartesian Hessian Update
 Hessian Updated using BFGS Update


** GEOMETRY OPTIMIZATION IN DELOCALIZED INTERNAL COORDINATES **
   Searching for a Minimum

   Optimization Cycle:   2

                       Coordinates (Angstroms)
     ATOM              X           Y           Z
    1  C           0.667241   -0.016873    0.000000
    2  O          -0.758466    0.126754    0.000000
    3  H          -1.091760   -0.806705    0.000000
    4  H           1.100195    0.984842    0.000000
    5  H           1.032649   -0.545696   -0.886605
    6  H           1.032649   -0.545696    0.886605
   Point Group: cs    Number of degrees of freedom:   8


   Energy is   -113.549193124

 Hessian Updated using BFGS Update

  7 Hessian modes will be used to form the next step
  Hessian Eigenvalues:
     0.097300    0.149562    0.205525    0.342484    0.380657    0.417024
     0.508802

 Minimum Search - Taking Simple RFO Step
 Searching for Lamda that Minimizes Along All modes
 Value Taken    Lamda =  -0.00000031
 Step Taken.  Stepsize is  0.001053

                             Maximum     Tolerance    Cnvgd?
         Gradient           0.000191      0.000300     YES
         Displacement       0.000679      0.001200     YES
         Energy change     -0.000001      0.000001     YES


                       Distance Matrix (Angstroms)
             C (  1)   O (  2)   H (  3)   H (  4)   H (  5)
   O (  2)  1.432923
   H (  3)  1.928190  0.991176
   H (  4)  1.091276  2.047178  2.830955
   H (  5)  1.095100  2.108637  2.316744  1.770078
   H (  6)  1.095100  2.108637  2.316744  1.770078  1.773210



 ******************************
 **  OPTIMIZATION CONVERGED  **
 ******************************
 Analysis of SCF Wavefunction

 --------------------------------------------------------------
             Orbital Energies (a.u.) and Symmetries
 --------------------------------------------------------------

 Alpha MOs, Restricted
 -- Occupied --                  
-20.263 -11.086  -1.278  -0.877  -0.611  -0.571  -0.517  -0.419
  1 A'    2 A'    3 A'    4 A'    5 A'    1 A"    6 A'    7 A'                 
 -0.359
  2 A"                                                                         
 -- Virtual --                   
  0.573   0.651   0.697   0.723   0.735
  8 A'    9 A'    3 A"   10 A'   11 A'                                         

 Beta MOs, Restricted
 -- Occupied --                  
-20.263 -11.086  -1.278  -0.877  -0.611  -0.571  -0.517  -0.419
  1 A'    2 A'    3 A'    4 A'    5 A'    1 A"    6 A'    7 A'                 
 -0.359
  2 A"                                                                         
 -- Virtual --                   
  0.573   0.651   0.697   0.723   0.735
  8 A'    9 A'    3 A"   10 A'   11 A'                                         
 --------------------------------------------------------------

         Mulliken Net Atomic Charges

     Atom                 Charge (a.u.)
  ----------------------------------------
      1 C                    -0.071447
      2 O                    -0.280178
      3 H                     0.173972
      4 H                     0.069668
      5 H                     0.053993
      6 H                     0.053993
  ----------------------------------------
  Sum of atomic charges =     0.000000

 -----------------------------------------------------------------
                    Cartesian Multipole Moments
 -----------------------------------------------------------------
    Charge (ESU x 10^10)
                 0.0000
    Dipole Moment (Debye)
         X       0.7374      Y      -1.3166      Z       0.0000
       Tot       1.5091
    Quadrupole Moments (Debye-Ang)
        XX     -12.2262     XY       1.5500     YY     -11.3341
        XZ       0.0000     YZ       0.0000     ZZ     -12.3760
    Octapole Moments (Debye-Ang^2)
       XXX      -5.0186    XXY      -1.2465    XYY      -1.8923
       YYY       0.1678    XXZ       0.0000    XYZ       0.0000
       YYZ       0.0000    XZZ      -1.0894    YZZ      -0.3259
       ZZZ       0.0000
    Hexadecapole Moments (Debye-Ang^3)
      XXXX     -56.3994   XXXY       1.5547   XXYY     -11.2948
      XYYY       1.2323   YYYY     -17.3586   XXXZ       0.0000
      XXYZ       0.0000   XYYZ       0.0000   YYYZ       0.0000
      XXZZ     -11.9969   XYZZ      -0.5118   YYZZ      -5.5488
      XZZZ       0.0000   YZZZ       0.0000   ZZZZ     -15.4388
 -----------------------------------------------------------------
 Total job time:  4.00s(wall), 0.00s(cpu) 

        *************************************************************
        *                                                           *
        *  Thank you very much for using Q-Chem.  Have a nice day.  *
        *                                                           *
        *************************************************************


                  Welcome to Q-Chem
     A Quantum Leap Into The Future Of Chemistry

 J. Kong, C. A. White, A. I. Krylov, C. D. Sherrill,
 R. D. Adamson, T. R. Furlani, M. S. Lee, A. M. Lee,
 S. R. Gwaltney, T. R. Adams, C. Ochsenfeld, A. T. B. Gilbert,
 G. S. Kedziora,  V. A. Rassolov, D. R. Maurice, N. Nair,
 Y. Shao, N. A. Besley, P. E. Maslen, J. P. Dombroski,
 H. Dachsel, W. M. Zhang, P. P. Korambath, J. Baker,
 E. F. C. Byrd, T. Van Voorhis, M. Oumi, S. Hirata,
 C. P. Hsu, N. Ishikawa, J. Florian, A. Warshel,
 B. G. Johnson, P. M. W. Gill, M. Head-Gordon, J. A. Pople,
 Q-Chem, Version 2.0, Q-Chem, Inc., Export, PA (2000).


 Intel x86 Linux Version

--------------------------------------------------------------
User input:
--------------------------------------------------------------

$molecule
	read
$end

$rem
	jobtype freq
	exchange hf
	basis sto-3g
$end


--------------------------------------------------------------
Processing $rem in /usr/local/share/qchem2.1/config/preferences.
 ----------------------------------------------------
       Standard Nuclear Orientation (Angstroms)
    I     Atom         X            Y            Z
 ----------------------------------------------------
    1      C       0.666715    -0.016887     0.000000
    2      O      -0.758983     0.126825     0.000000
    3      H      -1.092333    -0.806614     0.000000
    4      H       1.099729     0.984802     0.000000
    5      H       1.032091    -0.545732    -0.886605
    6      H       1.032091    -0.545732     0.886605
 ----------------------------------------------------
 Molecular Point Group                 Cs    NOp =  2
 Largest Abelian Subgroup              Cs    NOp =  2
 Nuclear Repulsion Energy =    39.9756247885 hartrees
 There are        9 alpha and        9 beta electrons
 Requested basis set is STO-3G
 There are 8 shells and 14 basis functions

                       Distance Matrix (Angstroms)
             C (  1)   O (  2)   H (  3)   H (  4)   H (  5)
   O (  2)  1.432923
   H (  3)  1.928190  0.991176
   H (  4)  1.091276  2.047178  2.830955
   H (  5)  1.095100  2.108637  2.316744  1.770078
   H (  6)  1.095100  2.108637  2.316744  1.770078  1.773210

 A cutoff of  1.0D-11 yielded     36 shell pairs
 There are    117 function pairs
 Smallest overlap matrix eigenvalue = 2.33E-01
 Multipole matrices computed through 2nd order
 Guess from superposition of atomic densities
 Warning:  Energy on first SCF cycle will be non-variational
 A restricted Hartree-Fock SCF calculation will be
 performed using Pulay DIIS extrapolation
 SCF converges when DIIS error is below 1.0E-08
 ---------------------------------------
  Cycle       Energy         DIIS Error
 ---------------------------------------
    1    -112.9400962066      2.75E-01
    2    -113.4993372943      3.66E-02
    3    -113.5464215458      9.39E-03
    4    -113.5490434832      1.69E-03
    5    -113.5491916993      1.64E-04
    6    -113.5491930302      3.86E-05
    7    -113.5491931236      3.95E-06
    8    -113.5491931244      5.35E-07
    9    -113.5491931245      1.83E-07
   10    -113.5491931245      2.42E-08
   11    -113.5491931245      6.46E-09 Convergence criterion met
 ---------------------------------------
 SCF time:  CPU 0.00 s  wall 1.00 s
 Analysis of SCF Wavefunction

 --------------------------------------------------------------
             Orbital Energies (a.u.) and Symmetries
 --------------------------------------------------------------

 Alpha MOs, Restricted
 -- Occupied --                  
-20.263 -11.086  -1.278  -0.877  -0.611  -0.571  -0.517  -0.419
  1 A'    2 A'    3 A'    4 A'    5 A'    1 A"    6 A'    7 A'                 
 -0.359
  2 A"                                                                         
 -- Virtual --                   
  0.573   0.651   0.697   0.723   0.735
  8 A'    9 A'    3 A"   10 A'   11 A'                                         

 Beta MOs, Restricted
 -- Occupied --                  
-20.263 -11.086  -1.278  -0.877  -0.611  -0.571  -0.517  -0.419
  1 A'    2 A'    3 A'    4 A'    5 A'    1 A"    6 A'    7 A'                 
 -0.359
  2 A"                                                                         
 -- Virtual --                   
  0.573   0.651   0.697   0.723   0.735
  8 A'    9 A'    3 A"   10 A'   11 A'                                         
 --------------------------------------------------------------

         Mulliken Net Atomic Charges

     Atom                 Charge (a.u.)
  ----------------------------------------
      1 C                    -0.071447
      2 O                    -0.280178
      3 H                     0.173972
      4 H                     0.069668
      5 H                     0.053993
      6 H                     0.053993
  ----------------------------------------
  Sum of atomic charges =     0.000000

 -----------------------------------------------------------------
                    Cartesian Multipole Moments
 -----------------------------------------------------------------
    Charge (ESU x 10^10)
                 0.0000
    Dipole Moment (Debye)
         X       0.7374      Y      -1.3167      Z       0.0000
       Tot       1.5091
    Quadrupole Moments (Debye-Ang)
        XX     -12.2268     XY       1.5508     YY     -11.3344
        XZ       0.0000     YZ       0.0000     ZZ     -12.3760
    Octapole Moments (Debye-Ang^2)
       XXX      -4.9995    XXY      -1.2484    XYY      -1.8862
       YYY       0.1673    XXZ       0.0000    XYZ       0.0000
       YYZ       0.0000    XZZ      -1.0829    YZZ      -0.3262
       ZZZ       0.0000
    Hexadecapole Moments (Debye-Ang^3)
      XXXX     -56.3885   XXXY       1.5578   XXYY     -11.2929
      XYYY       1.2331   YYYY     -17.3589   XXXZ       0.0000
      XXYZ       0.0000   XYYZ       0.0000   YYYZ       0.0000
      XXZZ     -11.9958   XYZZ      -0.5112   YYZZ      -5.5488
      XZZZ       0.0000   YZZZ       0.0000   ZZZZ     -15.4388
 -----------------------------------------------------------------
 Calculating MO derivatives via CPSCF
   1         3          18      0.100595    0.031294
   2        12           9      0.003485    0.000681
   3        21           0      0.000000    0.000000    Roots Converged
 Calculating analytic Hessian of the SCF energy
 Polarizability Matrix (a.u.)
            1           2           3
    1  -9.6439207  -1.8418733   0.0000000
    2  -1.8418733  -8.5743462   0.0000000
    3   0.0000000   0.0000000  -5.7426496

 Direct stationary perturbation theory relativistic correction:

 rels  =       0.040589433708
 relv  =      -0.134119682280
 rel2e =       0.039199666123
 E_rel =      -0.054330582449

 Hessian of the SCF Energy
            1           2           3           4           5           6
    1   0.7816484   0.0137864  -0.0000000  -0.4069525  -0.0207670  -0.0000000
    2   0.0137864   0.8745731  -0.0000000   0.0837732  -0.1357596   0.0000000
    3  -0.0000000  -0.0000000   0.8062615  -0.0000000   0.0000000  -0.0703011
    4  -0.4069525   0.0837732  -0.0000000   0.6161552   0.1301726   0.0000000
    5  -0.0207670  -0.1357596   0.0000000   0.1301726   0.6981196  -0.0000000
    6  -0.0000000   0.0000000  -0.0703011   0.0000000  -0.0000000   0.0535552
    7  -0.0311664  -0.0733044   0.0000000  -0.1250636  -0.1133182   0.0000000
    8   0.0335970   0.0039534   0.0000000  -0.2201050  -0.5802956  -0.0000000
    9  -0.0000000   0.0000000  -0.0033201   0.0000000  -0.0000000  -0.0039092
   10  -0.1279097  -0.1274123   0.0000000  -0.0183734  -0.0479237  -0.0000000
   11  -0.1314765  -0.4051440  -0.0000000  -0.0018066   0.0128344   0.0000000
   12   0.0000000  -0.0000000  -0.0836562  -0.0000000  -0.0000000   0.0020502
   13  -0.1078099   0.0515786   0.0943695  -0.0328828   0.0259182   0.0349043
   14   0.0524301  -0.1688115  -0.1419977   0.0039829   0.0025506  -0.0017057
   15   0.0879667  -0.1409408  -0.3244921   0.0029927   0.0013301   0.0093024
   16  -0.1078099   0.0515786  -0.0943695  -0.0328828   0.0259182  -0.0349043
   17   0.0524301  -0.1688115   0.1419977   0.0039829   0.0025506   0.0017057
   18  -0.0879667   0.1409408  -0.3244921  -0.0029927  -0.0013301   0.0093024
            7           8           9          10          11          12
    1  -0.0311664   0.0335970  -0.0000000  -0.1279097  -0.1314765   0.0000000
    2  -0.0733044   0.0039534   0.0000000  -0.1274123  -0.4051440  -0.0000000
    3   0.0000000   0.0000000  -0.0033201   0.0000000  -0.0000000  -0.0836562
    4  -0.1250636  -0.2201050   0.0000000  -0.0183734  -0.0018066  -0.0000000
    5  -0.1133182  -0.5802956  -0.0000000  -0.0479237   0.0128344  -0.0000000
    6   0.0000000  -0.0000000  -0.0039092  -0.0000000   0.0000000   0.0020502
    7   0.1591407   0.1832111  -0.0000000  -0.0111846   0.0039527  -0.0000000
    8   0.1832111   0.5715817   0.0000000   0.0012229   0.0016454  -0.0000000
    9  -0.0000000   0.0000000   0.0044564   0.0000000  -0.0000000   0.0014155
   10  -0.0111846   0.0012229   0.0000000   0.1415055   0.1445991  -0.0000000
   11   0.0039527   0.0016454  -0.0000000   0.1445991   0.4130958   0.0000000
   12  -0.0000000  -0.0000000   0.0014155  -0.0000000   0.0000000   0.0690897
   13   0.0041369   0.0010370   0.0006119   0.0079812  -0.0076343  -0.0161340
   14  -0.0002706   0.0015575   0.0018930   0.0147570  -0.0112157  -0.0352965
   15  -0.0003245   0.0009051   0.0006787  -0.0006208   0.0070468   0.0055504
   16   0.0041369   0.0010370  -0.0006119   0.0079812  -0.0076343   0.0161340
   17  -0.0002706   0.0015575  -0.0018930   0.0147570  -0.0112157   0.0352965
   18   0.0003245  -0.0009051   0.0006787   0.0006208  -0.0070468   0.0055504
           13          14          15          16          17          18
    1  -0.1078099   0.0524301   0.0879667  -0.1078099   0.0524301  -0.0879667
    2   0.0515786  -0.1688115  -0.1409408   0.0515786  -0.1688115   0.1409408
    3   0.0943695  -0.1419977  -0.3244921  -0.0943695   0.1419977  -0.3244921
    4  -0.0328828   0.0039829   0.0029927  -0.0328828   0.0039829  -0.0029927
    5   0.0259182   0.0025506   0.0013301   0.0259182   0.0025506  -0.0013301
    6   0.0349043  -0.0017057   0.0093024  -0.0349043   0.0017057   0.0093024
    7   0.0041369  -0.0002706  -0.0003245   0.0041369  -0.0002706   0.0003245
    8   0.0010370   0.0015575   0.0009051   0.0010370   0.0015575  -0.0009051
    9   0.0006119   0.0018930   0.0006787  -0.0006119  -0.0018930   0.0006787
   10   0.0079812   0.0147570  -0.0006208   0.0079812   0.0147570   0.0006208
   11  -0.0076343  -0.0112157   0.0070468  -0.0076343  -0.0112157  -0.0070468
   12  -0.0161340  -0.0352965   0.0055504   0.0161340   0.0352965   0.0055504
   13   0.1203505  -0.0628174  -0.1018829   0.0082241  -0.0080820  -0.0118688
   14  -0.0628174   0.1617141   0.1543829  -0.0080820   0.0142050   0.0227240
   15  -0.1018829   0.1543829   0.3297187   0.0118688  -0.0227240  -0.0207581
   16   0.0082241  -0.0080820   0.0118688   0.1203505  -0.0628174   0.1018829
   17  -0.0080820   0.0142050  -0.0227240  -0.0628174   0.1617141  -0.1543829
   18  -0.0118688   0.0227240  -0.0207581   0.1018829  -0.1543829   0.3297187
 Gradient time:  CPU 0.00 s  wall 3.00 s
 **********************************************************************
 **                                                                  **
 **                       VIBRATIONAL ANALYSIS                       **
 **                       --------------------                       **
 **                                                                  **
 **        VIBRATIONAL FREQUENCIES (CM**-1) AND NORMAL MODES         **
 **                  INFRARED INTENSITIES (KM/MOL)                   **
 **                                                                  **
 **********************************************************************


 Frequency:       399.15                1208.54                1308.32
 IR Active:          YES                    YES                    YES
 IR Intens:       74.905                 18.037                  4.982
 Raman Active:       YES                    YES                    YES
               X      Y      Z        X      Y      Z        X      Y      Z
 C          0.000  0.000  0.005    0.049  0.087  0.000    0.000  0.000 -0.133
 O          0.000  0.000 -0.062   -0.072 -0.015  0.000    0.000  0.000  0.060
 H          0.000  0.000  0.876    0.443 -0.207  0.000    0.000  0.000  0.020
 H          0.000  0.000  0.296    0.681 -0.189  0.000    0.000  0.000  0.241
 H          0.050  0.233 -0.118   -0.283 -0.204  0.040    0.646 -0.094  0.185
 H         -0.050 -0.233 -0.118   -0.283 -0.204 -0.040   -0.646  0.094  0.185

 Frequency:      1316.85                1722.95                1769.09
 IR Active:          YES                    YES                    YES
 IR Intens:        2.263                 15.033                  4.066
 Raman Active:       YES                    YES                    YES
               X      Y      Z        X      Y      Z        X      Y      Z
 C         -0.319  0.067  0.000    0.005 -0.101  0.000    0.149  0.019  0.000
 O          0.293 -0.036  0.000   -0.039  0.077  0.000   -0.009 -0.009  0.000
 H          0.394 -0.033  0.000    0.847 -0.258  0.000   -0.145  0.036  0.000
 H         -0.136 -0.017  0.000   -0.397  0.057  0.000   -0.505  0.307  0.000
 H         -0.555 -0.088 -0.005    0.053  0.086 -0.090   -0.491 -0.215 -0.125
 H         -0.555 -0.088  0.005    0.053  0.086  0.090   -0.491 -0.215  0.125

 Frequency:      1814.34                1830.48                3516.54
 IR Active:          YES                    YES                    YES
 IR Intens:        2.179                  1.898                  6.716
 Raman Active:       YES                    YES                    YES
               X      Y      Z        X      Y      Z        X      Y      Z
 C          0.000  0.000 -0.063    0.022 -0.054  0.000    0.051 -0.013  0.000
 O          0.000  0.000 -0.006    0.003 -0.013  0.000    0.000  0.000  0.000
 H          0.000  0.000 -0.004   -0.089  0.019  0.000   -0.010 -0.003  0.000
 H          0.000  0.000  0.738    0.237 -0.138  0.000   -0.191 -0.437  0.000
 H         -0.282 -0.378  0.056   -0.227  0.482 -0.415   -0.206  0.297  0.504
 H          0.282  0.378  0.056   -0.227  0.482  0.415   -0.206  0.297 -0.504

 Frequency:      3679.37                3716.46                4227.33
 IR Active:          YES                    YES                    YES
 IR Intens:       10.467                  1.576                 24.852
 Raman Active:       YES                    YES                    YES
               X      Y      Z        X      Y      Z        X      Y      Z
 C          0.000  0.000 -0.096   -0.012 -0.095  0.000    0.004 -0.004  0.000
 O          0.000  0.000  0.000    0.000  0.002  0.000   -0.025 -0.058  0.000
 H          0.000  0.000  0.004    0.003 -0.022  0.000    0.347  0.936  0.000
 H          0.000  0.000 -0.006    0.345  0.807  0.000    0.005  0.014  0.000
 H         -0.229  0.345  0.569   -0.107  0.156  0.272    0.000  0.005  0.007
 H          0.229 -0.345  0.569   -0.107  0.156 -0.272    0.000  0.005 -0.007

 STANDARD THERMODYNAMIC QUANTITIES AT   298.18 K  AND     1.00 ATM

   This Molecule has  0 Imaginary Frequencies
   Zero point vibrational energy:       37.897 kcal/mol

   Atom    1 Element C  Has Mass   12.00000
   Atom    2 Element O  Has Mass   15.99491
   Atom    3 Element H  Has Mass    1.00783
   Atom    4 Element H  Has Mass    1.00783
   Atom    5 Element H  Has Mass    1.00783
   Atom    6 Element H  Has Mass    1.00783
   Molecular Mass:    32.026230 amu
   Principal axes and moments of inertia in atomic units:
                           1         2         3
    Eigenvalues --     14.34475  73.58417  76.61261
          X             0.99891   0.04662   0.00000
          Y            -0.04662   0.99891   0.00000
          Z             0.00000   0.00000   1.00000
   Rotational Symmetry Number is   1
   The Molecule is an Asymmetric Top
   Translational Enthalpy:        0.889 kcal/mol
   Rotational Enthalpy:           0.889 kcal/mol
   Vibrational Enthalpy:         38.119 kcal/mol
   gas constant (RT):             0.593 kcal/mol
   Translational Entropy:        36.324  cal/mol.K
   Rotational Entropy:           19.031  cal/mol.K
   Vibrational Entropy:           1.072  cal/mol.K

   Total Enthalpy:               40.489 kcal/mol
   Total Entropy:                56.428  cal/mol.K
 Total job time:  4.00s(wall), 0.00s(cpu) 

        *************************************************************
        *                                                           *
        *  Thank you very much for using Q-Chem.  Have a nice day.  *
        *                                                           *
        *************************************************************


