Process 0 of 1 is on node07 - thread support 1
initial socket setup ...start
initial socket setup ...done 
now start server 0 ... 
                  Welcome to Q-Chem
     A Quantum Leap Into The Future Of Chemistry

 Y. Shao, L. Fusti-Molnar, Y. Jung, J. Kussmann, C. Ochsenfeld,
 S. T. Brown, A. T. B. Gilbert, L. V. Slipchenko,S. V. Levchenko,
 D. P. O'Neill, R. A. DiStasio Jr., R. C. Lochan, T. Wang,
 G. J. O. Beran, N. A. Besley, J. M. Herbert, C. Y. Lin,
 T. Van Voorhis, S. H. Chien, A. Sodt, R. P. Steele, 
 V. A. Rassolov, P. E. Maslen, P. P. Korambath, R. D. Adamson,
 B. Austin, J. Baker, E. F. C. Byrd, H. Dachsel, R. J. Doerksen,
 A. Dreuw, B. D. Dunietz, A. D. Dutoi, T. R. Furlani,
 S. R. Gwaltney, A. Heyden, S. Hirata, C.-P. Hsu, G. Kedziora,
 R. Z. Khaliullin, P. Klunzinger, A. M. Lee, M. S. Lee, W. Liang,
 I. Lotan, N. Nair, B. Peters, E. I. Proynov, P. A. Pieniazek, 
 Y. M. Rhee, J. Ritchie, E. Rosta, C. D. Sherrill, 
 A. C. Simmonett, J. E. Subotnik, H. L. Woodcock III,
 W. Zhang, A. T. Bell, A. K. Chakraborty, D. M. Chipman,
 F. J. Keil, A. Warshel, W. J. Hehre, H. F. Schaefer III,
 J. Kong, A. I. Krylov, P. M. W. Gill, M. Head-Gordon,
 Q-Chem, Version 3.1, Q-Chem, Inc., Pittsburgh, PA (2007).

 Additional authors for Version 3.1: 
 Z. Gan, Y. Zhao, N. E. Schultz, D. Truhlar, E. Epifanovsky and M. Oana.

 Additional authors for Version 3.2: 
 R. Baer, B. R. Brooks, D. Casanova, J.-D. Chai, C.-L. Cheng, 
 C. Cramer, D. Crittenden, A. Ghysels, G. Hawkins, E. G. Hohenstein, 
 C. Kelley, W. Kurlancheek, D. Liotard, E. Livshits, P. Manohar, 
 A. Marenich, D. Neuhauser, R. Olson, M. A. Rohrdanz, K. S. Thanthiriwatte, 
 A. J. W. Thom, V. Vanovschi, C. F. Williams, Q. Wu and Z.-Q. You. 


 Intel X86 EM64T Linux Version

 Q-chem begins on Wed Feb 25 10:28:46 2009  

 Parallel job on  1  processors
Processing $rem in /usr/local/qchem3201/config/preferences.

theFileMan(): MAXOPENFILES=974 MAX_SUB_FILE_NUM=16
Maximum size of a physical file is 2.0 GB, maximum size of a tmp-file is 32.0 GB


--------------------------------------------------------------
User input:
--------------------------------------------------------------
$comment
Starting geometry from enediyne built in Spartan
Singlet UDFT/631G* optimization
$end

$molecule
0 1
 6  -0.000000000  -0.123215224   1.084101161
 1  -0.000000000   0.826805862   1.610556591
 6   0.000000000  -0.122162524  -0.255961973
 1   0.000000000   0.828684513  -0.780924158
 6  -0.000000000  -1.300763176   1.881358946
 6   0.000000000  -1.298456437  -1.055068841
 1   0.000000000  -3.167626417  -2.334938468
 6   0.000000000  -2.286937424  -1.736177824
 1  -0.000000000  -3.171941676   3.158290306
 6  -0.000000000  -2.290313046   2.560914068
$end

$rem
JOBTYPE            OPT            single point
EXCHANGE           general
BASIS              6-31G*
UNRESTRICTED       TRUE
$end

$xc_functional
  X HF 0.5
  X S  0.08
  X B  0.42
  C VWN 0.19
  C LYP 0.81
$end

--------------------------------------------------------------
 Writing REM_CC_EA            0
 ----------------------------------------------------
       Standard Nuclear Orientation (Angstroms)
    I     Atom         X            Y            Z
 ----------------------------------------------------
    1      C       0.670032     0.000000     1.107691
    2      H       1.195741     0.000000     2.058125
    3      C      -0.670032     0.000000     1.107691
    4      H      -1.195741     0.000000     2.058125
    5      C       1.468214     0.000000    -0.069231
    6      C      -1.468214     0.000000    -0.069231
    7      H      -2.746615     0.000000    -1.939406
    8      C      -2.148547     0.000000    -1.058246
    9      H       2.746615     0.000000    -1.939406
   10      C       2.148547     0.000000    -1.058246
 ----------------------------------------------------
 Molecular Point Group                 C2v   NOp =  4
 Largest Abelian Subgroup              C2v   NOp =  4
 Nuclear Repulsion Energy =   167.0105268316 hartrees
 There are       20 alpha and       20 beta electrons
 Requested basis set is 6-31G(d)
 There are 32 shells and 98 basis functions

Total QAlloc Memory Limit   2000 MB
Mega-Array Size        61 MB
MEM_STATIC part        62 MB
 A cutoff of  1.0D-11 yielded    482 shell pairs
 There are   4830 function pairs
Evaluating contribution to one-electron hamiltonian from nuclear
 Smallest overlap matrix eigenvalue = 2.60E-04
 Multipole matrices computed through 2nd order

  Scale SEOQF with 1.000000e-01/1.000000e+00/1.000000e-01

 Standard Electronic Orientation quadrupole field applied
 Nucleus-field energy     =    -0.0000000010 hartrees
 Guess from superposition of atomic densities
 Warning:  Energy on first SCF cycle will be non-variational
 An unrestricted hybrid HF-DFT SCF calculation will be
 performed using Pulay DIIS extrapolation
 Exchange:     0.5000 Hartree-Fock + 0.0800 Slater + 0.4200 Becke
 Correlation:  0.1900 VWN + 0.8100 LYP
 Using SG-1 standard quadrature grid
 SCF converges when DIIS error is below 1.0E-08
 ---------------------------------------
  Cycle       Energy         DIIS Error
 ---------------------------------------
    1    -232.1542685361      8.07E-02
    2    -230.6433875883      6.46E-03
    3    -230.6841256688      3.64E-03
    4    -230.7004533384      9.20E-04
    5    -230.7010566623      6.67E-04
    6    -230.7016026121      1.39E-04
    7    -230.7016245427      1.76E-05
    8    -230.7016250203      2.86E-06
    9    -230.7016250395      6.33E-07
   10    -230.7016250376      1.44E-07
   11    -230.7016250672      4.46E-08
   12    -230.7016250237      1.15E-08
   13    -230.7016250254      2.04E-09 Convergence criterion met
 ---------------------------------------
 <S^2> = 0.0000
 SCF time:  CPU 36.24 s  wall 22.07 s
 Analysis of SCF Wavefunction
 
 --------------------------------------------------------------
             Orbital Energies (a.u.) and Symmetries
 --------------------------------------------------------------
 
 Alpha MOs, Unrestricted
 -- Occupied --                  
-10.624 -10.623 -10.593 -10.593 -10.588 -10.588  -0.947  -0.873
  1 A1    1 B1    2 B1    2 A1    3 B1    3 A1    4 A1    4 B1                 
 -0.837  -0.738  -0.640  -0.601  -0.580  -0.548  -0.483  -0.418
  5 A1    5 B1    6 A1    6 B1    7 A1    8 A1    7 B1    1 B2                 
 -0.352  -0.334  -0.328  -0.275
  1 A2    9 A1    8 B1    2 B2                                                 
 -- Virtual --                   
 -0.009   0.085   0.117   0.141   0.170   0.171   0.192   0.213
  2 A2   10 A1    9 B1    3 B2   11 A1   10 B1   12 A1   11 B1                 
  0.227   0.293   0.434   0.465   0.486   0.494   0.507   0.567
  3 A2   13 A1   12 B1   14 A1   13 B1   15 A1   14 B1   16 A1                 
  0.569   0.623   0.644   0.648   0.666   0.690   0.742   0.755
  4 B2    4 A2   15 B1   17 A1    5 B2   16 B1    5 A2   18 A1                 
  0.782   0.816   0.824   0.856   0.894   0.919   0.935   0.956
  6 B2   17 B1   19 A1    6 A2   20 A1   18 B1   19 B1   21 A1                 
  1.013   1.027   1.115   1.150   1.284   1.301   1.360   1.394
 22 A1   20 B1   21 B1   23 A1   22 B1   24 A1   23 B1    7 B2                 
  1.510   1.528   1.544   1.600   1.630   1.637   1.652   1.671
  8 B2    7 A2   24 B1   25 A1    8 A2   26 A1   25 B1    9 B2                 
  1.681   1.742   1.822   1.950   1.997   2.013   2.063   2.070
 26 B1   27 A1   27 B1   10 B2   28 A1    9 A2   11 B2   29 A1                 
  2.092   2.116   2.123   2.256   2.372   2.433   2.492   2.671
 28 B1   10 A2   30 A1   31 A1   29 B1   11 A2   30 B1   32 A1                 
  2.726   2.800   2.872   2.914   2.955   3.251   3.477   3.632
 31 B1   12 B2   33 A1   32 B1   12 A2   33 B1   34 A1   34 B1                 
  4.204   4.287   4.376   4.428   4.718   5.018
 35 A1   35 B1   36 A1   36 B1   37 A1   37 B1                                 
 
 Beta MOs, Unrestricted
 -- Occupied --                  
-10.624 -10.623 -10.593 -10.593 -10.588 -10.588  -0.947  -0.873
  1 A1    1 B1    2 B1    2 A1    3 B1    3 A1    4 A1    4 B1                 
 -0.837  -0.738  -0.640  -0.601  -0.580  -0.548  -0.483  -0.418
  5 A1    5 B1    6 A1    6 B1    7 A1    8 A1    7 B1    1 B2                 
 -0.352  -0.334  -0.328  -0.275
  1 A2    9 A1    8 B1    2 B2                                                 
 -- Virtual --                   
 -0.009   0.085   0.117   0.141   0.170   0.171   0.192   0.213
  2 A2   10 A1    9 B1    3 B2   11 A1   10 B1   12 A1   11 B1                 
  0.227   0.293   0.434   0.465   0.486   0.494   0.507   0.567
  3 A2   13 A1   12 B1   14 A1   13 B1   15 A1   14 B1   16 A1                 
  0.569   0.623   0.644   0.648   0.666   0.690   0.742   0.755
  4 B2    4 A2   15 B1   17 A1    5 B2   16 B1    5 A2   18 A1                 
  0.782   0.816   0.824   0.856   0.894   0.919   0.935   0.956
  6 B2   17 B1   19 A1    6 A2   20 A1   18 B1   19 B1   21 A1                 
  1.013   1.027   1.115   1.150   1.284   1.301   1.360   1.394
 22 A1   20 B1   21 B1   23 A1   22 B1   24 A1   23 B1    7 B2                 
  1.510   1.528   1.544   1.600   1.630   1.637   1.652   1.671
  8 B2    7 A2   24 B1   25 A1    8 A2   26 A1   25 B1    9 B2                 
  1.681   1.742   1.822   1.950   1.997   2.013   2.063   2.070
 26 B1   27 A1   27 B1   10 B2   28 A1    9 A2   11 B2   29 A1                 
  2.092   2.116   2.123   2.256   2.372   2.433   2.492   2.671
 28 B1   10 A2   30 A1   31 A1   29 B1   11 A2   30 B1   32 A1                 
  2.726   2.800   2.872   2.914   2.955   3.251   3.477   3.632
 31 B1   12 B2   33 A1   32 B1   12 A2   33 B1   34 A1   34 B1                 
  4.204   4.287   4.376   4.428   4.718   5.018
 35 A1   35 B1   36 A1   36 B1   37 A1   37 B1                                 
 --------------------------------------------------------------
 
          Ground-State Mulliken Net Atomic Charges

     Atom                 Charge (a.u.)    Spin (a.u.)
  --------------------------------------------------------
      1 C                    -0.223883       0.000000
      2 H                     0.199821       0.000000
      3 C                    -0.223883       0.000000
      4 H                     0.199821       0.000000
      5 C                     0.309160       0.000000
      6 C                     0.309160       0.000000
      7 H                     0.246716       0.000000
      8 C                    -0.531814       0.000000
      9 H                     0.246716       0.000000
     10 C                    -0.531814       0.000000
  --------------------------------------------------------
  Sum of atomic charges =     0.000000
  Sum of spin   charges =     0.000000

 -----------------------------------------------------------------
                    Cartesian Multipole Moments
 -----------------------------------------------------------------
    Charge (ESU x 10^10)
                 0.0000
    Dipole Moment (Debye)
         X       0.0000      Y       0.0000      Z       0.0926
       Tot       0.0926
    Quadrupole Moments (Debye-Ang)
        XX     -30.1947     XY       0.0000     YY     -36.9227
        XZ       0.0000     YZ       0.0000     ZZ     -25.7736
    Octapole Moments (Debye-Ang^2)
       XXX       0.0000    XXY       0.0000    XYY       0.0000
       YYY       0.0000    XXZ     -18.2869    XYZ       0.0000
       YYZ       0.2428    XZZ       0.0000    YZZ       0.0000
       ZZZ      -3.7155
    Hexadecapole Moments (Debye-Ang^3)
      XXXX    -522.9351   XXXY       0.0000   XXYY    -107.5816
      XYYY       0.0000   YYYY     -38.2516   XXXZ       0.0000
      XXYZ       0.0000   XYYZ       0.0000   YYYZ       0.0000
      XXZZ     -73.4839   XYZZ       0.0000   YYZZ     -50.4209
      XZZZ       0.0000   YZZZ       0.0000   ZZZZ    -200.1667
 -----------------------------------------------------------------
 Calculating analytic gradient of the SCF energy
 Gradient of SCF Energy
            1           2           3           4           5           6
    1  -0.0017203   0.0027152   0.0017203  -0.0027152  -0.0012762   0.0012762
    2  -0.0000000   0.0000000  -0.0000000   0.0000000  -0.0000000  -0.0000000
    3  -0.0010427   0.0046367  -0.0010427   0.0046367   0.0029485   0.0029485
            7           8           9          10
    1  -0.0027734  -0.0003750   0.0027734   0.0003750
    2   0.0000000   0.0000000   0.0000000   0.0000000
    3  -0.0039915  -0.0025510  -0.0039915  -0.0025510
 Max gradient component =       4.637E-03
 RMS gradient           =       2.214E-03
 Gradient time:  CPU 6.19 s  wall 5.37 s


** GEOMETRY OPTIMIZATION IN DELOCALIZED INTERNAL COORDINATES **
   Searching for a Minimum

   Optimization Cycle:   1

                       Coordinates (Angstroms)
     ATOM              X           Y           Z
    1  C           0.670032    0.000000    1.107691
    2  H           1.195741    0.000000    2.058125
    3  C          -0.670032    0.000000    1.107691
    4  H          -1.195741    0.000000    2.058125
    5  C           1.468214    0.000000   -0.069231
    6  C          -1.468214    0.000000   -0.069231
    7  H          -2.746615    0.000000   -1.939406
    8  C          -2.148547    0.000000   -1.058246
    9  H           2.746615    0.000000   -1.939406
   10  C           2.148547    0.000000   -1.058246
   Point Group: c2v   Number of degrees of freedom:   9


   Energy is   -230.701625025


 Attempting to Generate Delocalized Internal Coordinates

  9 Hessian modes will be used to form the next step
  Hessian Eigenvalues:
     0.160000    0.200000    0.200000    0.220000    0.352628    0.378752
     0.421524    0.571907    1.046132

 Minimum Search - Taking Simple RFO Step
 Searching for Lamda that Minimizes Along All modes
 Value Taken    Lamda =  -0.00060088
 Step Taken.  Stepsize is  0.040843

                             Maximum     Tolerance    Cnvgd?
         Gradient           0.014856      0.000300      NO
         Displacement       0.032931      0.001200      NO
         Energy change     *********      0.000001      NO


 New Cartesian Coordinates Obtained by Inverse Iteration

 Displacement from previous Coordinates is:  0.136746
 Writing REM_CC_EA           10
 ----------------------------------------------------
       Standard Nuclear Orientation (Angstroms)
    I     Atom         X            Y            Z
 ----------------------------------------------------
    1      C       0.668707     0.000000     1.092729
    2      H       1.184282     0.000000     2.039546
    3      C      -0.668707     0.000000     1.092729
    4      H      -1.184282     0.000000     2.039546
    5      C       1.477513     0.000000    -0.070776
    6      C      -1.477513     0.000000    -0.070776
    7      H      -2.770285     0.000000    -1.918213
    8      C      -2.173543     0.000000    -1.044353
    9      H       2.770285     0.000000    -1.918213
   10      C       2.173543     0.000000    -1.044353
 ----------------------------------------------------
 Molecular Point Group                 C2v   NOp =  4
 Largest Abelian Subgroup              C2v   NOp =  4
 Nuclear Repulsion Energy =   167.2517690238 hartrees
 There are       20 alpha and       20 beta electrons
 Applying Cartesian multipole field
    Component          Value
    ---------          -----
     (2,0,0)        1.00000E-11
     (0,2,0)        2.00000E-10
     (0,0,2)       -3.00000E-11
 Nucleus-field energy     =    -0.0000000008 hartrees
 Requested basis set is 6-31G(d)
 There are 32 shells and 98 basis functions
 A cutoff of  1.0D-11 yielded    482 shell pairs
 There are   4830 function pairs
Evaluating contribution to one-electron hamiltonian from nuclear
 Smallest overlap matrix eigenvalue = 2.46E-04
 Multipole matrices computed through 2nd order
 Guess MOs from SCF MO coefficient file
Reading MOs from coefficient file
Reading MOs from coefficient file
 An unrestricted hybrid HF-DFT SCF calculation will be
 performed using Pulay DIIS extrapolation
 Exchange:     0.5000 Hartree-Fock + 0.0800 Slater + 0.4200 Becke
 Correlation:  0.1900 VWN + 0.8100 LYP
 Using SG-1 standard quadrature grid
 SCF converges when DIIS error is below 1.0E-08
 ---------------------------------------
  Cycle       Energy         DIIS Error
 ---------------------------------------
    1    -230.7227905108      1.12E-03
    2    -230.7018892989      1.12E-04
    3    -230.7019044610      8.86E-05
    4    -230.7019119261      4.75E-05
    5    -230.7019147224      7.77E-06
    6    -230.7019148069      2.14E-06
    7    -230.7019148127      5.74E-07
    8    -230.7019148127      1.53E-07
    9    -230.7019148125      2.84E-08
   10    -230.7019148127      7.62E-09 Convergence criterion met
 ---------------------------------------
 <S^2> = 0.0000
 SCF time:  CPU 30.58 s  wall 19.29 s
 Analysis of SCF Wavefunction
 
 --------------------------------------------------------------
             Orbital Energies (a.u.) and Symmetries
 --------------------------------------------------------------
 
 Alpha MOs, Unrestricted
 -- Occupied --                  
-10.622 -10.621 -10.591 -10.591 -10.586 -10.586  -0.948  -0.874
  1 A1    1 B1    2 B1    2 A1    3 B1    3 A1    4 A1    4 B1                 
 -0.839  -0.740  -0.642  -0.603  -0.582  -0.549  -0.484  -0.419
  5 A1    5 B1    6 A1    6 B1    7 A1    8 A1    7 B1    1 B2                 
 -0.353  -0.334  -0.329  -0.275
  1 A2    9 A1    8 B1    2 B2                                                 
 -- Virtual --                   
 -0.008   0.086   0.118   0.143   0.172   0.173   0.193   0.216
  2 A2   10 A1    9 B1    3 B2   11 A1   10 B1   12 A1   11 B1                 
  0.229   0.298   0.436   0.465   0.490   0.494   0.507   0.566
  3 A2   13 A1   12 B1   14 A1   13 B1   15 A1   14 B1   16 A1                 
  0.569   0.621   0.644   0.649   0.666   0.689   0.743   0.756
  4 B2    4 A2   15 B1   17 A1    5 B2   16 B1    5 A2   18 A1                 
  0.784   0.815   0.822   0.857   0.894   0.924   0.936   0.960
  6 B2   17 B1   19 A1    6 A2   20 A1   18 B1   19 B1   21 A1                 
  1.019   1.033   1.118   1.155   1.293   1.311   1.366   1.394
 22 A1   20 B1   21 B1   23 A1   22 B1   24 A1   23 B1    7 B2                 
  1.510   1.530   1.556   1.601   1.628   1.638   1.652   1.670
  8 B2    7 A2   24 B1   25 A1    8 A2   26 A1   25 B1    9 B2                 
  1.678   1.747   1.826   1.953   2.000   2.014   2.065   2.072
 26 B1   27 A1   27 B1   10 B2   28 A1    9 A2   11 B2   29 A1                 
  2.095   2.118   2.131   2.262   2.373   2.435   2.506   2.681
 28 B1   10 A2   30 A1   31 A1   29 B1   11 A2   30 B1   32 A1                 
  2.730   2.807   2.881   2.922   2.966   3.268   3.489   3.644
 31 B1   12 B2   33 A1   32 B1   12 A2   33 B1   34 A1   34 B1                 
  4.210   4.294   4.385   4.437   4.726   5.031
 35 A1   35 B1   36 A1   36 B1   37 A1   37 B1                                 
 
 Beta MOs, Unrestricted
 -- Occupied --                  
-10.622 -10.621 -10.591 -10.591 -10.586 -10.586  -0.948  -0.874
  1 A1    1 B1    2 B1    2 A1    3 B1    3 A1    4 A1    4 B1                 
 -0.839  -0.740  -0.642  -0.603  -0.582  -0.549  -0.484  -0.419
  5 A1    5 B1    6 A1    6 B1    7 A1    8 A1    7 B1    1 B2                 
 -0.353  -0.334  -0.329  -0.275
  1 A2    9 A1    8 B1    2 B2                                                 
 -- Virtual --                   
 -0.008   0.086   0.118   0.143   0.172   0.173   0.193   0.216
  2 A2   10 A1    9 B1    3 B2   11 A1   10 B1   12 A1   11 B1                 
  0.229   0.298   0.436   0.465   0.490   0.494   0.507   0.566
  3 A2   13 A1   12 B1   14 A1   13 B1   15 A1   14 B1   16 A1                 
  0.569   0.621   0.644   0.649   0.666   0.689   0.743   0.756
  4 B2    4 A2   15 B1   17 A1    5 B2   16 B1    5 A2   18 A1                 
  0.784   0.815   0.822   0.857   0.894   0.924   0.936   0.960
  6 B2   17 B1   19 A1    6 A2   20 A1   18 B1   19 B1   21 A1                 
  1.019   1.033   1.118   1.155   1.293   1.311   1.366   1.394
 22 A1   20 B1   21 B1   23 A1   22 B1   24 A1   23 B1    7 B2                 
  1.510   1.530   1.556   1.601   1.628   1.638   1.652   1.670
  8 B2    7 A2   24 B1   25 A1    8 A2   26 A1   25 B1    9 B2                 
  1.678   1.747   1.826   1.953   2.000   2.014   2.065   2.072
 26 B1   27 A1   27 B1   10 B2   28 A1    9 A2   11 B2   29 A1                 
  2.095   2.118   2.131   2.262   2.373   2.435   2.506   2.681
 28 B1   10 A2   30 A1   31 A1   29 B1   11 A2   30 B1   32 A1                 
  2.730   2.807   2.881   2.922   2.966   3.268   3.489   3.644
 31 B1   12 B2   33 A1   32 B1   12 A2   33 B1   34 A1   34 B1                 
  4.210   4.294   4.385   4.437   4.726   5.031
 35 A1   35 B1   36 A1   36 B1   37 A1   37 B1                                 
 --------------------------------------------------------------
 
          Ground-State Mulliken Net Atomic Charges

     Atom                 Charge (a.u.)    Spin (a.u.)
  --------------------------------------------------------
      1 C                    -0.225804       0.000000
      2 H                     0.199709       0.000000
      3 C                    -0.225804       0.000000
      4 H                     0.199709       0.000000
      5 C                     0.324395       0.000000
      6 C                     0.324395       0.000000
      7 H                     0.244263       0.000000
      8 C                    -0.542564       0.000000
      9 H                     0.244263       0.000000
     10 C                    -0.542564       0.000000
  --------------------------------------------------------
  Sum of atomic charges =     0.000000
  Sum of spin   charges =     0.000000

 -----------------------------------------------------------------
                    Cartesian Multipole Moments
 -----------------------------------------------------------------
    Charge (ESU x 10^10)
                 0.0000
    Dipole Moment (Debye)
         X       0.0000      Y       0.0000      Z       0.0885
       Tot       0.0885
    Quadrupole Moments (Debye-Ang)
        XX     -30.1472     XY       0.0000     YY     -36.8367
        XZ       0.0000     YZ       0.0000     ZZ     -25.9351
    Octapole Moments (Debye-Ang^2)
       XXX       0.0000    XXY       0.0000    XYY       0.0000
       YYY       0.0000    XXZ     -18.4540    XYZ       0.0000
       YYZ       0.2657    XZZ       0.0000    YZZ       0.0000
       ZZZ      -3.4283
    Hexadecapole Moments (Debye-Ang^3)
      XXXX    -529.7452   XXXY       0.0000   XXYY    -108.9855
      XYYY       0.0000   YYYY     -38.1048   XXXZ       0.0000
      XXYZ       0.0000   XYYZ       0.0000   YYYZ       0.0000
      XXZZ     -74.7650   XYZZ       0.0000   YYZZ     -49.3258
      XZZZ       0.0000   YZZZ       0.0000   ZZZZ    -196.4493
 -----------------------------------------------------------------
 Calculating analytic gradient of the SCF energy
 Gradient of SCF Energy
            1           2           3           4           5           6
    1  -0.0006015  -0.0001250   0.0006015   0.0001250   0.0016214  -0.0016214
    2   0.0000000  -0.0000000   0.0000000  -0.0000000   0.0000000   0.0000000
    3   0.0001770  -0.0005982   0.0001770  -0.0005982  -0.0000716  -0.0000716
            7           8           9          10
    1   0.0007048   0.0004792  -0.0007048  -0.0004792
    2  -0.0000000  -0.0000000  -0.0000000  -0.0000000
    3   0.0003566   0.0001361   0.0003566   0.0001361
 Max gradient component =       1.621E-03
 RMS gradient           =       5.337E-04
 Gradient time:  CPU 6.03 s  wall 5.44 s

 Cartesian Hessian Update
 Hessian Updated using BFGS Update


** GEOMETRY OPTIMIZATION IN DELOCALIZED INTERNAL COORDINATES **
   Searching for a Minimum

   Optimization Cycle:   2

                       Coordinates (Angstroms)
     ATOM              X           Y           Z
    1  C           0.668707    0.000000    1.092729
    2  H           1.184282    0.000000    2.039546
    3  C          -0.668707    0.000000    1.092729
    4  H          -1.184282    0.000000    2.039546
    5  C           1.477513    0.000000   -0.070776
    6  C          -1.477513    0.000000   -0.070776
    7  H          -2.770285    0.000000   -1.918213
    8  C          -2.173543    0.000000   -1.044353
    9  H           2.770285    0.000000   -1.918213
   10  C           2.173543    0.000000   -1.044353
   Point Group: c2v   Number of degrees of freedom:   9


   Energy is   -230.701914813

 Hessian Updated using BFGS Update

  9 Hessian modes will be used to form the next step
  Hessian Eigenvalues:
     0.159184    0.181856    0.202965    0.214405    0.361062    0.402711
     0.429454    0.574657    1.096802

 Minimum Search - Taking Simple RFO Step
 Searching for Lamda that Minimizes Along All modes
 Value Taken    Lamda =  -0.00002549
 Step Taken.  Stepsize is  0.010558

                             Maximum     Tolerance    Cnvgd?
         Gradient           0.001660      0.000300      NO
         Displacement       0.007765      0.001200      NO
         Energy change     -0.000290      0.000001      NO


 New Cartesian Coordinates Obtained by Inverse Iteration

 Displacement from previous Coordinates is:  0.055786
 Writing REM_CC_EA           10
 ----------------------------------------------------
       Standard Nuclear Orientation (Angstroms)
    I     Atom         X            Y            Z
 ----------------------------------------------------
    1      C       0.668781     0.000000     1.088658
    2      H       1.182137     0.000000     2.037265
    3      C      -0.668781     0.000000     1.088658
    4      H      -1.182137     0.000000     2.037265
    5      C       1.481003     0.000000    -0.072357
    6      C      -1.481003     0.000000    -0.072357
    7      H      -2.787020     0.000000    -1.911782
    8      C      -2.181970     0.000000    -1.042852
    9      H       2.787020     0.000000    -1.911782
   10      C       2.181970     0.000000    -1.042852
 ----------------------------------------------------
 Molecular Point Group                 C2v   NOp =  4
 Largest Abelian Subgroup              C2v   NOp =  4
 Nuclear Repulsion Energy =   167.1364885606 hartrees
 There are       20 alpha and       20 beta electrons
 Applying Cartesian multipole field
    Component          Value
    ---------          -----
     (2,0,0)        1.00000E-11
     (0,2,0)        2.00000E-10
     (0,0,2)       -3.00000E-11
 Nucleus-field energy     =    -0.0000000008 hartrees
 Requested basis set is 6-31G(d)
 There are 32 shells and 98 basis functions
 A cutoff of  1.0D-11 yielded    482 shell pairs
 There are   4830 function pairs
Evaluating contribution to one-electron hamiltonian from nuclear
 Smallest overlap matrix eigenvalue = 2.46E-04
 Multipole matrices computed through 2nd order
 Guess MOs from SCF MO coefficient file
Reading MOs from coefficient file
Reading MOs from coefficient file
 An unrestricted hybrid HF-DFT SCF calculation will be
 performed using Pulay DIIS extrapolation
 Exchange:     0.5000 Hartree-Fock + 0.0800 Slater + 0.4200 Becke
 Correlation:  0.1900 VWN + 0.8100 LYP
 Using SG-1 standard quadrature grid
 SCF converges when DIIS error is below 1.0E-08
 ---------------------------------------
  Cycle       Energy         DIIS Error
 ---------------------------------------
    1    -230.6990827709      2.76E-04
    2    -230.7019317236      3.50E-05
    3    -230.7019340316      1.66E-05
    4    -230.7019343842      6.13E-06
    5    -230.7019344159      4.62E-06
    6    -230.7019344415      1.03E-06
    7    -230.7019344434      2.54E-07
    8    -230.7019344431      4.60E-08
    9    -230.7019344428      3.68E-09 Convergence criterion met
 ---------------------------------------
 <S^2> = 0.0000
 SCF time:  CPU 27.47 s  wall 17.24 s
 Analysis of SCF Wavefunction
 
 --------------------------------------------------------------
             Orbital Energies (a.u.) and Symmetries
 --------------------------------------------------------------
 
 Alpha MOs, Unrestricted
 -- Occupied --                  
-10.622 -10.621 -10.592 -10.592 -10.587 -10.587  -0.948  -0.875
  1 A1    1 B1    2 B1    2 A1    3 B1    3 A1    4 A1    4 B1                 
 -0.839  -0.740  -0.642  -0.603  -0.582  -0.549  -0.484  -0.419
  5 A1    5 B1    6 A1    6 B1    7 A1    8 A1    7 B1    1 B2                 
 -0.353  -0.334  -0.330  -0.275
  1 A2    9 A1    8 B1    2 B2                                                 
 -- Virtual --                   
 -0.009   0.086   0.117   0.143   0.172   0.173   0.193   0.216
  2 A2   10 A1    9 B1    3 B2   11 A1   10 B1   12 A1   11 B1                 
  0.229   0.298   0.435   0.465   0.490   0.494   0.507   0.566
  3 A2   13 A1   12 B1   14 A1   13 B1   15 A1   14 B1   16 A1                 
  0.569   0.621   0.644   0.649   0.666   0.688   0.744   0.756
  4 B2    4 A2   15 B1   17 A1    5 B2   16 B1    5 A2   18 A1                 
  0.784   0.816   0.823   0.857   0.893   0.924   0.935   0.960
  6 B2   17 B1   19 A1    6 A2   20 A1   18 B1   19 B1   21 A1                 
  1.019   1.033   1.119   1.156   1.291   1.310   1.365   1.394
 22 A1   20 B1   21 B1   23 A1   22 B1   24 A1   23 B1    7 B2                 
  1.510   1.530   1.558   1.602   1.628   1.638   1.651   1.671
  8 B2    7 A2   24 B1   25 A1    8 A2   26 A1   25 B1    9 B2                 
  1.679   1.746   1.826   1.953   1.999   2.014   2.065   2.072
 26 B1   27 A1   27 B1   10 B2   28 A1    9 A2   11 B2   29 A1                 
  2.095   2.117   2.131   2.261   2.373   2.434   2.504   2.680
 28 B1   10 A2   30 A1   31 A1   29 B1   11 A2   30 B1   32 A1                 
  2.729   2.806   2.881   2.922   2.967   3.268   3.488   3.644
 31 B1   12 B2   33 A1   32 B1   12 A2   33 B1   34 A1   34 B1                 
  4.209   4.293   4.384   4.436   4.726   5.031
 35 A1   35 B1   36 A1   36 B1   37 A1   37 B1                                 
 
 Beta MOs, Unrestricted
 -- Occupied --                  
-10.622 -10.621 -10.592 -10.592 -10.587 -10.587  -0.948  -0.875
  1 A1    1 B1    2 B1    2 A1    3 B1    3 A1    4 A1    4 B1                 
 -0.839  -0.740  -0.642  -0.603  -0.582  -0.549  -0.484  -0.419
  5 A1    5 B1    6 A1    6 B1    7 A1    8 A1    7 B1    1 B2                 
 -0.353  -0.334  -0.330  -0.275
  1 A2    9 A1    8 B1    2 B2                                                 
 -- Virtual --                   
 -0.009   0.086   0.117   0.143   0.172   0.173   0.193   0.216
  2 A2   10 A1    9 B1    3 B2   11 A1   10 B1   12 A1   11 B1                 
  0.229   0.298   0.435   0.465   0.490   0.494   0.507   0.566
  3 A2   13 A1   12 B1   14 A1   13 B1   15 A1   14 B1   16 A1                 
  0.569   0.621   0.644   0.649   0.666   0.688   0.744   0.756
  4 B2    4 A2   15 B1   17 A1    5 B2   16 B1    5 A2   18 A1                 
  0.784   0.816   0.823   0.857   0.893   0.924   0.935   0.960
  6 B2   17 B1   19 A1    6 A2   20 A1   18 B1   19 B1   21 A1                 
  1.019   1.033   1.119   1.156   1.291   1.310   1.365   1.394
 22 A1   20 B1   21 B1   23 A1   22 B1   24 A1   23 B1    7 B2                 
  1.510   1.530   1.558   1.602   1.628   1.638   1.651   1.671
  8 B2    7 A2   24 B1   25 A1    8 A2   26 A1   25 B1    9 B2                 
  1.679   1.746   1.826   1.953   1.999   2.014   2.065   2.072
 26 B1   27 A1   27 B1   10 B2   28 A1    9 A2   11 B2   29 A1                 
  2.095   2.117   2.131   2.261   2.373   2.434   2.504   2.680
 28 B1   10 A2   30 A1   31 A1   29 B1   11 A2   30 B1   32 A1                 
  2.729   2.806   2.881   2.922   2.967   3.268   3.488   3.644
 31 B1   12 B2   33 A1   32 B1   12 A2   33 B1   34 A1   34 B1                 
  4.209   4.293   4.384   4.436   4.726   5.031
 35 A1   35 B1   36 A1   36 B1   37 A1   37 B1                                 
 --------------------------------------------------------------
 
          Ground-State Mulliken Net Atomic Charges

     Atom                 Charge (a.u.)    Spin (a.u.)
  --------------------------------------------------------
      1 C                    -0.226212       0.000000
      2 H                     0.199573       0.000000
      3 C                    -0.226212       0.000000
      4 H                     0.199573       0.000000
      5 C                     0.324572       0.000000
      6 C                     0.324572       0.000000
      7 H                     0.244656       0.000000
      8 C                    -0.542588       0.000000
      9 H                     0.244656       0.000000
     10 C                    -0.542588       0.000000
  --------------------------------------------------------
  Sum of atomic charges =     0.000000
  Sum of spin   charges =     0.000000

 -----------------------------------------------------------------
                    Cartesian Multipole Moments
 -----------------------------------------------------------------
    Charge (ESU x 10^10)
                 0.0000
    Dipole Moment (Debye)
         X       0.0000      Y       0.0000      Z       0.0932
       Tot       0.0932
    Quadrupole Moments (Debye-Ang)
        XX     -30.0359     XY       0.0000     YY     -36.8425
        XZ       0.0000     YZ       0.0000     ZZ     -26.0017
    Octapole Moments (Debye-Ang^2)
       XXX       0.0000    XXY       0.0000    XYY       0.0000
       YYY       0.0000    XXZ     -18.7066    XYZ       0.0000
       YYZ       0.3065    XZZ       0.0000    YZZ       0.0000
       ZZZ      -3.1591
    Hexadecapole Moments (Debye-Ang^3)
      XXXX    -531.0410   XXXY       0.0000   XXYY    -109.6555
      XYYY       0.0000   YYYY     -38.1148   XXXZ       0.0000
      XXYZ       0.0000   XYYZ       0.0000   YYYZ       0.0000
      XXZZ     -74.9709   XYZZ       0.0000   YYZZ     -49.1652
      XZZZ       0.0000   YZZZ       0.0000   ZZZZ    -196.0349
 -----------------------------------------------------------------
 Calculating analytic gradient of the SCF energy
 Gradient of SCF Energy
            1           2           3           4           5           6
    1  -0.0005122  -0.0000853   0.0005122   0.0000853   0.0012639  -0.0012639
    2  -0.0000000   0.0000000  -0.0000000   0.0000000   0.0000000  -0.0000000
    3  -0.0002145  -0.0002218  -0.0002145  -0.0002218   0.0006404   0.0006404
            7           8           9          10
    1   0.0002745   0.0004294  -0.0002745  -0.0004294
    2   0.0000000  -0.0000000  -0.0000000  -0.0000000
    3  -0.0000121  -0.0001920  -0.0000121  -0.0001920
 Max gradient component =       1.264E-03
 RMS gradient           =       4.218E-04
 Gradient time:  CPU 5.95 s  wall 5.36 s

 Cartesian Hessian Update
 Hessian Updated using BFGS Update


** GEOMETRY OPTIMIZATION IN DELOCALIZED INTERNAL COORDINATES **
   Searching for a Minimum

   Optimization Cycle:   3

                       Coordinates (Angstroms)
     ATOM              X           Y           Z
    1  C           0.668781    0.000000    1.088658
    2  H           1.182137    0.000000    2.037265
    3  C          -0.668781    0.000000    1.088658
    4  H          -1.182137    0.000000    2.037265
    5  C           1.481003    0.000000   -0.072357
    6  C          -1.481003    0.000000   -0.072357
    7  H          -2.787020    0.000000   -1.911782
    8  C          -2.181970    0.000000   -1.042852
    9  H           2.787020    0.000000   -1.911782
   10  C           2.181970    0.000000   -1.042852
   Point Group: c2v   Number of degrees of freedom:   9


   Energy is   -230.701934443

 Hessian Updated using BFGS Update

  9 Hessian modes will be used to form the next step
  Hessian Eigenvalues:
     0.063136    0.162192    0.207589    0.252729    0.357802    0.414953
     0.435338    0.577711    1.134415

 Minimum Search - Taking Simple RFO Step
 Searching for Lamda that Minimizes Along All modes
 Value Taken    Lamda =  -0.00003329
 Step Taken.  Stepsize is  0.022682

                             Maximum     Tolerance    Cnvgd?
         Gradient           0.001075      0.000300      NO
         Displacement       0.013451      0.001200      NO
         Energy change     -0.000020      0.000001      NO


 New Cartesian Coordinates Obtained by Inverse Iteration

 Displacement from previous Coordinates is:  0.089557
 Writing REM_CC_EA           10
 ----------------------------------------------------
       Standard Nuclear Orientation (Angstroms)
    I     Atom         X            Y            Z
 ----------------------------------------------------
    1      C       0.668803     0.000000     1.081969
    2      H       1.179628     0.000000     2.032752
    3      C      -0.668803     0.000000     1.081969
    4      H      -1.179628     0.000000     2.032752
    5      C       1.485106     0.000000    -0.075921
    6      C      -1.485106     0.000000    -0.075921
    7      H      -2.812879     0.000000    -1.900836
    8      C      -2.196766     0.000000    -1.039031
    9      H       2.812879     0.000000    -1.900836
   10      C       2.196766     0.000000    -1.039031
 ----------------------------------------------------
 Molecular Point Group                 C2v   NOp =  4
 Largest Abelian Subgroup              C2v   NOp =  4
 Nuclear Repulsion Energy =   166.9841958435 hartrees
 There are       20 alpha and       20 beta electrons
 Applying Cartesian multipole field
    Component          Value
    ---------          -----
     (2,0,0)        1.00000E-11
     (0,2,0)        2.00000E-10
     (0,0,2)       -3.00000E-11
 Nucleus-field energy     =    -0.0000000007 hartrees
 Requested basis set is 6-31G(d)
 There are 32 shells and 98 basis functions
 A cutoff of  1.0D-11 yielded    482 shell pairs
 There are   4830 function pairs
Evaluating contribution to one-electron hamiltonian from nuclear
 Smallest overlap matrix eigenvalue = 2.44E-04
 Multipole matrices computed through 2nd order
 Guess MOs from SCF MO coefficient file
Reading MOs from coefficient file
Reading MOs from coefficient file
 An unrestricted hybrid HF-DFT SCF calculation will be
 performed using Pulay DIIS extrapolation
 Exchange:     0.5000 Hartree-Fock + 0.0800 Slater + 0.4200 Becke
 Correlation:  0.1900 VWN + 0.8100 LYP
 Using SG-1 standard quadrature grid
 SCF converges when DIIS error is below 1.0E-08
 ---------------------------------------
  Cycle       Energy         DIIS Error
 ---------------------------------------
    1    -230.6982404069      5.62E-04
    2    -230.7019480644      6.47E-05
    3    -230.7019558583      3.01E-05
    4    -230.7019569992      1.11E-05
    5    -230.7019571159      7.60E-06
    6    -230.7019571827      2.23E-06
    7    -230.7019571896      4.53E-07
    8    -230.7019571898      8.80E-08
    9    -230.7019571899      7.50E-09 Convergence criterion met
 ---------------------------------------
 <S^2> = 0.0000
 SCF time:  CPU 27.11 s  wall 17.25 s
 Analysis of SCF Wavefunction
 
 --------------------------------------------------------------
             Orbital Energies (a.u.) and Symmetries
 --------------------------------------------------------------
 
 Alpha MOs, Unrestricted
 -- Occupied --                  
-10.622 -10.621 -10.592 -10.592 -10.587 -10.587  -0.948  -0.875
  1 A1    1 B1    2 B1    2 A1    3 B1    3 A1    4 A1    4 B1                 
 -0.839  -0.740  -0.642  -0.603  -0.582  -0.549  -0.484  -0.419
  5 A1    5 B1    6 A1    6 B1    7 A1    8 A1    7 B1    1 B2                 
 -0.353  -0.334  -0.330  -0.275
  1 A2    9 A1    8 B1    2 B2                                                 
 -- Virtual --                   
 -0.009   0.085   0.117   0.142   0.172   0.172   0.193   0.216
  2 A2   10 A1    9 B1    3 B2   11 A1   10 B1   12 A1   11 B1                 
  0.229   0.299   0.434   0.465   0.491   0.495   0.507   0.565
  3 A2   13 A1   12 B1   14 A1   13 B1   15 A1   14 B1   16 A1                 
  0.569   0.621   0.644   0.649   0.666   0.687   0.744   0.755
  4 B2    4 A2   15 B1   17 A1    5 B2   16 B1    5 A2   18 A1                 
  0.784   0.815   0.822   0.857   0.892   0.924   0.934   0.959
  6 B2   17 B1   19 A1    6 A2   20 A1   18 B1   19 B1   21 A1                 
  1.019   1.034   1.120   1.158   1.290   1.309   1.363   1.394
 22 A1   20 B1   21 B1   23 A1   22 B1   24 A1   23 B1    7 B2                 
  1.510   1.530   1.564   1.601   1.628   1.639   1.651   1.671
  8 B2    7 A2   24 B1   25 A1    8 A2   26 A1   25 B1    9 B2                 
  1.679   1.745   1.824   1.952   1.998   2.014   2.064   2.071
 26 B1   27 A1   27 B1   10 B2   28 A1    9 A2   11 B2   29 A1                 
  2.096   2.115   2.130   2.262   2.370   2.434   2.505   2.680
 28 B1   10 A2   30 A1   31 A1   29 B1   11 A2   30 B1   32 A1                 
  2.728   2.806   2.881   2.921   2.967   3.270   3.487   3.643
 31 B1   12 B2   33 A1   32 B1   12 A2   33 B1   34 A1   34 B1                 
  4.209   4.293   4.383   4.436   4.725   5.031
 35 A1   35 B1   36 A1   36 B1   37 A1   37 B1                                 
 
 Beta MOs, Unrestricted
 -- Occupied --                  
-10.622 -10.621 -10.592 -10.592 -10.587 -10.587  -0.948  -0.875
  1 A1    1 B1    2 B1    2 A1    3 B1    3 A1    4 A1    4 B1                 
 -0.839  -0.740  -0.642  -0.603  -0.582  -0.549  -0.484  -0.419
  5 A1    5 B1    6 A1    6 B1    7 A1    8 A1    7 B1    1 B2                 
 -0.353  -0.334  -0.330  -0.275
  1 A2    9 A1    8 B1    2 B2                                                 
 -- Virtual --                   
 -0.009   0.085   0.117   0.142   0.172   0.172   0.193   0.216
  2 A2   10 A1    9 B1    3 B2   11 A1   10 B1   12 A1   11 B1                 
  0.229   0.299   0.434   0.465   0.491   0.495   0.507   0.565
  3 A2   13 A1   12 B1   14 A1   13 B1   15 A1   14 B1   16 A1                 
  0.569   0.621   0.644   0.649   0.666   0.687   0.744   0.755
  4 B2    4 A2   15 B1   17 A1    5 B2   16 B1    5 A2   18 A1                 
  0.784   0.815   0.822   0.857   0.892   0.924   0.934   0.959
  6 B2   17 B1   19 A1    6 A2   20 A1   18 B1   19 B1   21 A1                 
  1.019   1.034   1.120   1.158   1.290   1.309   1.363   1.394
 22 A1   20 B1   21 B1   23 A1   22 B1   24 A1   23 B1    7 B2                 
  1.510   1.530   1.564   1.601   1.628   1.639   1.651   1.671
  8 B2    7 A2   24 B1   25 A1    8 A2   26 A1   25 B1    9 B2                 
  1.679   1.745   1.824   1.952   1.998   2.014   2.064   2.071
 26 B1   27 A1   27 B1   10 B2   28 A1    9 A2   11 B2   29 A1                 
  2.096   2.115   2.130   2.262   2.370   2.434   2.505   2.680
 28 B1   10 A2   30 A1   31 A1   29 B1   11 A2   30 B1   32 A1                 
  2.728   2.806   2.881   2.921   2.967   3.270   3.487   3.643
 31 B1   12 B2   33 A1   32 B1   12 A2   33 B1   34 A1   34 B1                 
  4.209   4.293   4.383   4.436   4.725   5.031
 35 A1   35 B1   36 A1   36 B1   37 A1   37 B1                                 
 --------------------------------------------------------------
 
          Ground-State Mulliken Net Atomic Charges

     Atom                 Charge (a.u.)    Spin (a.u.)
  --------------------------------------------------------
      1 C                    -0.226372       0.000000
      2 H                     0.199616       0.000000
      3 C                    -0.226372       0.000000
      4 H                     0.199616       0.000000
      5 C                     0.324999       0.000000
      6 C                     0.324999       0.000000
      7 H                     0.245054       0.000000
      8 C                    -0.543297       0.000000
      9 H                     0.245054       0.000000
     10 C                    -0.543297       0.000000
  --------------------------------------------------------
  Sum of atomic charges =     0.000000
  Sum of spin   charges =     0.000000

 -----------------------------------------------------------------
                    Cartesian Multipole Moments
 -----------------------------------------------------------------
    Charge (ESU x 10^10)
                 0.0000
    Dipole Moment (Debye)
         X       0.0000      Y       0.0000      Z       0.1014
       Tot       0.1014
    Quadrupole Moments (Debye-Ang)
        XX     -29.8778     XY       0.0000     YY     -36.8477
        XZ       0.0000     YZ       0.0000     ZZ     -26.1083
    Octapole Moments (Debye-Ang^2)
       XXX       0.0000    XXY       0.0000    XYY       0.0000
       YYY       0.0000    XXZ     -19.0592    XYZ       0.0000
       YYZ       0.3682    XZZ       0.0000    YZZ       0.0000
       ZZZ      -2.7368
    Hexadecapole Moments (Debye-Ang^3)
      XXXX    -533.4140   XXXY       0.0000   XXYY    -110.7354
      XYYY       0.0000   YYYY     -38.1236   XXXZ       0.0000
      XXYZ       0.0000   XYYZ       0.0000   YYYZ       0.0000
      XXZZ     -75.3694   XYZZ       0.0000   YYZZ     -48.8566
      XZZZ       0.0000   YZZZ       0.0000   ZZZZ    -195.1099
 -----------------------------------------------------------------
 Calculating analytic gradient of the SCF energy
 Gradient of SCF Energy
            1           2           3           4           5           6
    1  -0.0003750  -0.0000260   0.0003750   0.0000260   0.0006130  -0.0006130
    2   0.0000000  -0.0000000  -0.0000000   0.0000000   0.0000000   0.0000000
    3  -0.0007425   0.0002981  -0.0007425   0.0002981   0.0011359   0.0011359
            7           8           9          10
    1  -0.0000968   0.0001992   0.0000968  -0.0001992
    2  -0.0000000  -0.0000000  -0.0000000   0.0000000
    3  -0.0003130  -0.0003785  -0.0003130  -0.0003785
 Max gradient component =       1.136E-03
 RMS gradient           =       4.272E-04
 Gradient time:  CPU 6.53 s  wall 5.43 s

 Cartesian Hessian Update
 Hessian Updated using BFGS Update


** GEOMETRY OPTIMIZATION IN DELOCALIZED INTERNAL COORDINATES **
   Searching for a Minimum

   Optimization Cycle:   4

                       Coordinates (Angstroms)
     ATOM              X           Y           Z
    1  C           0.668803    0.000000    1.081969
    2  H           1.179628    0.000000    2.032752
    3  C          -0.668803    0.000000    1.081969
    4  H          -1.179628    0.000000    2.032752
    5  C           1.485106    0.000000   -0.075921
    6  C          -1.485106    0.000000   -0.075921
    7  H          -2.812879    0.000000   -1.900836
    8  C          -2.196766    0.000000   -1.039031
    9  H           2.812879    0.000000   -1.900836
   10  C           2.196766    0.000000   -1.039031
   Point Group: c2v   Number of degrees of freedom:   9


   Energy is   -230.701957190

 Hessian Updated using BFGS Update

  9 Hessian modes will be used to form the next step
  Hessian Eigenvalues:
     0.032914    0.163551    0.210249    0.256933    0.362451    0.420393
     0.465640    0.580502    1.201879

 Minimum Search - Taking Simple RFO Step
 Searching for Lamda that Minimizes Along All modes
 Value Taken    Lamda =  -0.00001978
 Step Taken.  Stepsize is  0.022165

                             Maximum     Tolerance    Cnvgd?
         Gradient           0.000713      0.000300      NO
         Displacement       0.013472      0.001200      NO
         Energy change     -0.000023      0.000001      NO


 New Cartesian Coordinates Obtained by Inverse Iteration

 Displacement from previous Coordinates is:  0.057290
 Writing REM_CC_EA           10
 ----------------------------------------------------
       Standard Nuclear Orientation (Angstroms)
    I     Atom         X            Y            Z
 ----------------------------------------------------
    1      C       0.668790     0.000000     1.078140
    2      H       1.179627     0.000000     2.029018
    3      C      -0.668790     0.000000     1.078140
    4      H      -1.179627     0.000000     2.029018
    5      C       1.485862     0.000000    -0.079187
    6      C      -1.485862     0.000000    -0.079187
    7      H      -2.829250     0.000000    -1.892749
    8      C      -2.205642     0.000000    -1.036289
    9      H       2.829250     0.000000    -1.892749
   10      C       2.205642     0.000000    -1.036289
 ----------------------------------------------------
 Molecular Point Group                 C2v   NOp =  4
 Largest Abelian Subgroup              C2v   NOp =  4
 Nuclear Repulsion Energy =   166.9209019845 hartrees
 There are       20 alpha and       20 beta electrons
 Applying Cartesian multipole field
    Component          Value
    ---------          -----
     (2,0,0)        1.00000E-11
     (0,2,0)        2.00000E-10
     (0,0,2)       -3.00000E-11
 Nucleus-field energy     =    -0.0000000006 hartrees
 Requested basis set is 6-31G(d)
 There are 32 shells and 98 basis functions
 A cutoff of  1.0D-11 yielded    482 shell pairs
 There are   4830 function pairs
Evaluating contribution to one-electron hamiltonian from nuclear
 Smallest overlap matrix eigenvalue = 2.42E-04
 Multipole matrices computed through 2nd order
 Guess MOs from SCF MO coefficient file
Reading MOs from coefficient file
Reading MOs from coefficient file
 An unrestricted hybrid HF-DFT SCF calculation will be
 performed using Pulay DIIS extrapolation
 Exchange:     0.5000 Hartree-Fock + 0.0800 Slater + 0.4200 Becke
 Correlation:  0.1900 VWN + 0.8100 LYP
 Using SG-1 standard quadrature grid
 SCF converges when DIIS error is below 1.0E-08
 ---------------------------------------
  Cycle       Energy         DIIS Error
 ---------------------------------------
    1    -230.7003993369      4.22E-04
    2    -230.7019664143      4.58E-05
    3    -230.7019704712      2.16E-05
    4    -230.7019710610      8.27E-06
    5    -230.7019711323      5.18E-06
    6    -230.7019711626      1.74E-06
    7    -230.7019711671      3.05E-07
    8    -230.7019711667      6.18E-08
    9    -230.7019711664      5.91E-09 Convergence criterion met
 ---------------------------------------
 <S^2> = 0.0000
 SCF time:  CPU 27.21 s  wall 17.19 s
 Analysis of SCF Wavefunction
 
 --------------------------------------------------------------
             Orbital Energies (a.u.) and Symmetries
 --------------------------------------------------------------
 
 Alpha MOs, Unrestricted
 -- Occupied --                  
-10.622 -10.621 -10.592 -10.592 -10.587 -10.587  -0.948  -0.875
  1 A1    1 B1    2 B1    2 A1    3 B1    3 A1    4 A1    4 B1                 
 -0.839  -0.740  -0.642  -0.603  -0.582  -0.549  -0.484  -0.419
  5 A1    5 B1    6 A1    6 B1    7 A1    8 A1    7 B1    1 B2                 
 -0.354  -0.334  -0.330  -0.275
  1 A2    9 A1    8 B1    2 B2                                                 
 -- Virtual --                   
 -0.009   0.085   0.118   0.142   0.172   0.172   0.193   0.216
  2 A2   10 A1    9 B1    3 B2   11 A1   10 B1   12 A1   11 B1                 
  0.229   0.300   0.433   0.465   0.490   0.495   0.507   0.565
  3 A2   13 A1   12 B1   14 A1   13 B1   15 A1   14 B1   16 A1                 
  0.569   0.621   0.644   0.649   0.666   0.687   0.744   0.755
  4 B2    4 A2   15 B1   17 A1    5 B2   16 B1    5 A2   18 A1                 
  0.783   0.815   0.822   0.857   0.891   0.924   0.934   0.959
  6 B2   17 B1   19 A1    6 A2   20 A1   18 B1   19 B1   21 A1                 
  1.019   1.035   1.120   1.159   1.290   1.308   1.362   1.394
 22 A1   20 B1   21 B1   23 A1   22 B1   24 A1   23 B1    7 B2                 
  1.510   1.530   1.569   1.601   1.628   1.640   1.652   1.671
  8 B2    7 A2   24 B1   25 A1    8 A2   26 A1   25 B1    9 B2                 
  1.679   1.746   1.823   1.953   1.998   2.015   2.064   2.070
 26 B1   27 A1   27 B1   10 B2   28 A1    9 A2   11 B2   29 A1                 
  2.097   2.114   2.129   2.263   2.368   2.435   2.506   2.681
 28 B1   10 A2   30 A1   31 A1   29 B1   11 A2   30 B1   32 A1                 
  2.728   2.806   2.880   2.920   2.967   3.272   3.487   3.642
 31 B1   12 B2   33 A1   32 B1   12 A2   33 B1   34 A1   34 B1                 
  4.209   4.294   4.383   4.436   4.725   5.029
 35 A1   35 B1   36 A1   36 B1   37 A1   37 B1                                 
 
 Beta MOs, Unrestricted
 -- Occupied --                  
-10.622 -10.621 -10.592 -10.592 -10.587 -10.587  -0.948  -0.875
  1 A1    1 B1    2 B1    2 A1    3 B1    3 A1    4 A1    4 B1                 
 -0.839  -0.740  -0.642  -0.603  -0.582  -0.549  -0.484  -0.419
  5 A1    5 B1    6 A1    6 B1    7 A1    8 A1    7 B1    1 B2                 
 -0.354  -0.334  -0.330  -0.275
  1 A2    9 A1    8 B1    2 B2                                                 
 -- Virtual --                   
 -0.009   0.085   0.118   0.142   0.172   0.172   0.193   0.216
  2 A2   10 A1    9 B1    3 B2   11 A1   10 B1   12 A1   11 B1                 
  0.229   0.300   0.433   0.465   0.490   0.495   0.507   0.565
  3 A2   13 A1   12 B1   14 A1   13 B1   15 A1   14 B1   16 A1                 
  0.569   0.621   0.644   0.649   0.666   0.687   0.744   0.755
  4 B2    4 A2   15 B1   17 A1    5 B2   16 B1    5 A2   18 A1                 
  0.783   0.815   0.822   0.857   0.891   0.924   0.934   0.959
  6 B2   17 B1   19 A1    6 A2   20 A1   18 B1   19 B1   21 A1                 
  1.019   1.035   1.120   1.159   1.290   1.308   1.362   1.394
 22 A1   20 B1   21 B1   23 A1   22 B1   24 A1   23 B1    7 B2                 
  1.510   1.530   1.569   1.601   1.628   1.640   1.652   1.671
  8 B2    7 A2   24 B1   25 A1    8 A2   26 A1   25 B1    9 B2                 
  1.679   1.746   1.823   1.953   1.998   2.015   2.064   2.070
 26 B1   27 A1   27 B1   10 B2   28 A1    9 A2   11 B2   29 A1                 
  2.097   2.114   2.129   2.263   2.368   2.435   2.506   2.681
 28 B1   10 A2   30 A1   31 A1   29 B1   11 A2   30 B1   32 A1                 
  2.728   2.806   2.880   2.920   2.967   3.272   3.487   3.642
 31 B1   12 B2   33 A1   32 B1   12 A2   33 B1   34 A1   34 B1                 
  4.209   4.294   4.383   4.436   4.725   5.029
 35 A1   35 B1   36 A1   36 B1   37 A1   37 B1                                 
 --------------------------------------------------------------
 
          Ground-State Mulliken Net Atomic Charges

     Atom                 Charge (a.u.)    Spin (a.u.)
  --------------------------------------------------------
      1 C                    -0.225985       0.000000
      2 H                     0.199885       0.000000
      3 C                    -0.225985       0.000000
      4 H                     0.199885       0.000000
      5 C                     0.324856       0.000000
      6 C                     0.324856       0.000000
      7 H                     0.245112       0.000000
      8 C                    -0.543869       0.000000
      9 H                     0.245112       0.000000
     10 C                    -0.543868       0.000000
  --------------------------------------------------------
  Sum of atomic charges =     0.000000
  Sum of spin   charges =     0.000000

 -----------------------------------------------------------------
                    Cartesian Multipole Moments
 -----------------------------------------------------------------
    Charge (ESU x 10^10)
                 0.0000
    Dipole Moment (Debye)
         X       0.0000      Y       0.0000      Z       0.1114
       Tot       0.1114
    Quadrupole Moments (Debye-Ang)
        XX     -29.7645     XY       0.0000     YY     -36.8485
        XZ       0.0000     YZ       0.0000     ZZ     -26.1858
    Octapole Moments (Debye-Ang^2)
       XXX       0.0000    XXY       0.0000    XYY       0.0000
       YYY       0.0000    XXZ     -19.2424    XYZ       0.0000
       YYZ       0.4117    XZZ       0.0000    YZZ       0.0000
       ZZZ      -2.4304
    Hexadecapole Moments (Debye-Ang^3)
      XXXX    -534.2446   XXXY       0.0000   XXYY    -111.3305
      XYYY       0.0000   YYYY     -38.1250   XXXZ       0.0000
      XXYZ       0.0000   XYYZ       0.0000   YYYZ       0.0000
      XXZZ     -75.6007   XYZZ       0.0000   YYZZ     -48.6500
      XZZZ       0.0000   YZZZ       0.0000   ZZZZ    -194.5640
 -----------------------------------------------------------------
 Calculating analytic gradient of the SCF energy
 Gradient of SCF Energy
            1           2           3           4           5           6
    1  -0.0001409  -0.0000149   0.0001409   0.0000149   0.0001679  -0.0001679
    2  -0.0000000   0.0000000   0.0000000   0.0000000   0.0000000   0.0000000
    3  -0.0006772   0.0003613  -0.0006772   0.0003613   0.0009140   0.0009140
            7           8           9          10
    1  -0.0002044   0.0000785   0.0002044  -0.0000785
    2   0.0000000  -0.0000000  -0.0000000  -0.0000000
    3  -0.0002847  -0.0003135  -0.0002847  -0.0003135
 Max gradient component =       9.140E-04
 RMS gradient           =       3.367E-04
 Gradient time:  CPU 6.14 s  wall 5.40 s

 Cartesian Hessian Update
 Hessian Updated using BFGS Update


** GEOMETRY OPTIMIZATION IN DELOCALIZED INTERNAL COORDINATES **
   Searching for a Minimum

   Optimization Cycle:   5

                       Coordinates (Angstroms)
     ATOM              X           Y           Z
    1  C           0.668790    0.000000    1.078140
    2  H           1.179627    0.000000    2.029018
    3  C          -0.668790    0.000000    1.078140
    4  H          -1.179627    0.000000    2.029018
    5  C           1.485862    0.000000   -0.079187
    6  C          -1.485862    0.000000   -0.079187
    7  H          -2.829250    0.000000   -1.892749
    8  C          -2.205642    0.000000   -1.036289
    9  H           2.829250    0.000000   -1.892749
   10  C           2.205642    0.000000   -1.036289
   Point Group: c2v   Number of degrees of freedom:   9


   Energy is   -230.701971166

 Hessian Updated using BFGS Update

  9 Hessian modes will be used to form the next step
  Hessian Eigenvalues:
     0.023435    0.161911    0.208348    0.236523    0.361573    0.416408
     0.445913    0.578575    1.163090

 Minimum Search - Taking Simple RFO Step
 Searching for Lamda that Minimizes Along All modes
 Value Taken    Lamda =  -0.00001150
 Step Taken.  Stepsize is  0.017329

                             Maximum     Tolerance    Cnvgd?
         Gradient           0.000769      0.000300      NO
         Displacement       0.010372      0.001200      NO
         Energy change     -0.000014      0.000001      NO


 New Cartesian Coordinates Obtained by Inverse Iteration

 Displacement from previous Coordinates is:  0.022745
 Writing REM_CC_EA           10
 ----------------------------------------------------
       Standard Nuclear Orientation (Angstroms)
    I     Atom         X            Y            Z
 ----------------------------------------------------
    1      C       0.668750     0.000000     1.077265
    2      H       1.181337     0.000000     2.026922
    3      C      -0.668750     0.000000     1.077265
    4      H      -1.181337     0.000000     2.026922
    5      C       1.484277     0.000000    -0.081376
    6      C      -1.484277     0.000000    -0.081376
    7      H      -2.834896     0.000000    -1.889096
    8      C      -2.208733     0.000000    -1.034783
    9      H       2.834896     0.000000    -1.889096
   10      C       2.208733     0.000000    -1.034783
 ----------------------------------------------------
 Molecular Point Group                 C2v   NOp =  4
 Largest Abelian Subgroup              C2v   NOp =  4
 Nuclear Repulsion Energy =   166.9241274422 hartrees
 There are       20 alpha and       20 beta electrons
 Applying Cartesian multipole field
    Component          Value
    ---------          -----
     (2,0,0)        1.00000E-11
     (0,2,0)        2.00000E-10
     (0,0,2)       -3.00000E-11
 Nucleus-field energy     =    -0.0000000006 hartrees
 Requested basis set is 6-31G(d)
 There are 32 shells and 98 basis functions
 A cutoff of  1.0D-11 yielded    482 shell pairs
 There are   4830 function pairs
Evaluating contribution to one-electron hamiltonian from nuclear
 Smallest overlap matrix eigenvalue = 2.41E-04
 Multipole matrices computed through 2nd order
 Guess MOs from SCF MO coefficient file
Reading MOs from coefficient file
Reading MOs from coefficient file
 An unrestricted hybrid HF-DFT SCF calculation will be
 performed using Pulay DIIS extrapolation
 Exchange:     0.5000 Hartree-Fock + 0.0800 Slater + 0.4200 Becke
 Correlation:  0.1900 VWN + 0.8100 LYP
 Using SG-1 standard quadrature grid
 SCF converges when DIIS error is below 1.0E-08
 ---------------------------------------
  Cycle       Energy         DIIS Error
 ---------------------------------------
    1    -230.7018825457      2.50E-04
    2    -230.7019766185      2.53E-05
    3    -230.7019778433      1.29E-05
    4    -230.7019780391      5.34E-06
    5    -230.7019780666      3.19E-06
    6    -230.7019780789      9.22E-07
    7    -230.7019780802      1.35E-07
    8    -230.7019780797      3.28E-08
    9    -230.7019780796      4.00E-09 Convergence criterion met
 ---------------------------------------
 <S^2> = 0.0000
 SCF time:  CPU 28.77 s  wall 17.17 s
 Analysis of SCF Wavefunction
 
 --------------------------------------------------------------
             Orbital Energies (a.u.) and Symmetries
 --------------------------------------------------------------
 
 Alpha MOs, Unrestricted
 -- Occupied --                  
-10.622 -10.621 -10.592 -10.592 -10.587 -10.587  -0.948  -0.875
  1 A1    1 B1    2 B1    2 A1    3 B1    3 A1    4 A1    4 B1                 
 -0.839  -0.740  -0.642  -0.603  -0.582  -0.549  -0.484  -0.419
  5 A1    5 B1    6 A1    6 B1    7 A1    8 A1    7 B1    1 B2                 
 -0.354  -0.334  -0.330  -0.275
  1 A2    9 A1    8 B1    2 B2                                                 
 -- Virtual --                   
 -0.009   0.085   0.118   0.142   0.172   0.173   0.193   0.216
  2 A2   10 A1    9 B1    3 B2   11 A1   10 B1   12 A1   11 B1                 
  0.229   0.300   0.433   0.465   0.490   0.496   0.507   0.566
  3 A2   13 A1   12 B1   14 A1   13 B1   15 A1   14 B1   16 A1                 
  0.569   0.621   0.644   0.649   0.666   0.687   0.744   0.755
  4 B2    4 A2   15 B1   17 A1    5 B2   16 B1    5 A2   18 A1                 
  0.783   0.815   0.821   0.857   0.891   0.924   0.935   0.958
  6 B2   17 B1   19 A1    6 A2   20 A1   18 B1   19 B1   21 A1                 
  1.019   1.035   1.119   1.158   1.290   1.308   1.361   1.394
 22 A1   20 B1   21 B1   23 A1   22 B1   24 A1   23 B1    7 B2                 
  1.510   1.530   1.573   1.600   1.629   1.641   1.654   1.671
  8 B2    7 A2   24 B1   25 A1    8 A2   26 A1   25 B1    9 B2                 
  1.680   1.747   1.821   1.953   1.998   2.016   2.064   2.070
 26 B1   27 A1   27 B1   10 B2   28 A1    9 A2   11 B2   29 A1                 
  2.098   2.113   2.128   2.265   2.367   2.436   2.507   2.681
 28 B1   10 A2   30 A1   31 A1   29 B1   11 A2   30 B1   32 A1                 
  2.729   2.806   2.880   2.920   2.966   3.274   3.487   3.642
 31 B1   12 B2   33 A1   32 B1   12 A2   33 B1   34 A1   34 B1                 
  4.209   4.294   4.384   4.436   4.724   5.027
 35 A1   35 B1   36 A1   36 B1   37 A1   37 B1                                 
 
 Beta MOs, Unrestricted
 -- Occupied --                  
-10.622 -10.621 -10.592 -10.592 -10.587 -10.587  -0.948  -0.875
  1 A1    1 B1    2 B1    2 A1    3 B1    3 A1    4 A1    4 B1                 
 -0.839  -0.740  -0.642  -0.603  -0.582  -0.549  -0.484  -0.419
  5 A1    5 B1    6 A1    6 B1    7 A1    8 A1    7 B1    1 B2                 
 -0.354  -0.334  -0.330  -0.275
  1 A2    9 A1    8 B1    2 B2                                                 
 -- Virtual --                   
 -0.009   0.085   0.118   0.142   0.172   0.173   0.193   0.216
  2 A2   10 A1    9 B1    3 B2   11 A1   10 B1   12 A1   11 B1                 
  0.229   0.300   0.433   0.465   0.490   0.496   0.507   0.566
  3 A2   13 A1   12 B1   14 A1   13 B1   15 A1   14 B1   16 A1                 
  0.569   0.621   0.644   0.649   0.666   0.687   0.744   0.755
  4 B2    4 A2   15 B1   17 A1    5 B2   16 B1    5 A2   18 A1                 
  0.783   0.815   0.821   0.857   0.891   0.924   0.935   0.958
  6 B2   17 B1   19 A1    6 A2   20 A1   18 B1   19 B1   21 A1                 
  1.019   1.035   1.119   1.158   1.290   1.308   1.361   1.394
 22 A1   20 B1   21 B1   23 A1   22 B1   24 A1   23 B1    7 B2                 
  1.510   1.530   1.573   1.600   1.629   1.641   1.654   1.671
  8 B2    7 A2   24 B1   25 A1    8 A2   26 A1   25 B1    9 B2                 
  1.680   1.747   1.821   1.953   1.998   2.016   2.064   2.070
 26 B1   27 A1   27 B1   10 B2   28 A1    9 A2   11 B2   29 A1                 
  2.098   2.113   2.128   2.265   2.367   2.436   2.507   2.681
 28 B1   10 A2   30 A1   31 A1   29 B1   11 A2   30 B1   32 A1                 
  2.729   2.806   2.880   2.920   2.966   3.274   3.487   3.642
 31 B1   12 B2   33 A1   32 B1   12 A2   33 B1   34 A1   34 B1                 
  4.209   4.294   4.384   4.436   4.724   5.027
 35 A1   35 B1   36 A1   36 B1   37 A1   37 B1                                 
 --------------------------------------------------------------
 
          Ground-State Mulliken Net Atomic Charges

     Atom                 Charge (a.u.)    Spin (a.u.)
  --------------------------------------------------------
      1 C                    -0.225260       0.000000
      2 H                     0.200256       0.000000
      3 C                    -0.225260       0.000000
      4 H                     0.200256       0.000000
      5 C                     0.324149       0.000000
      6 C                     0.324149       0.000000
      7 H                     0.244959       0.000000
      8 C                    -0.544104       0.000000
      9 H                     0.244959       0.000000
     10 C                    -0.544104       0.000000
  --------------------------------------------------------
  Sum of atomic charges =     0.000000
  Sum of spin   charges =     0.000000

 -----------------------------------------------------------------
                    Cartesian Multipole Moments
 -----------------------------------------------------------------
    Charge (ESU x 10^10)
                 0.0000
    Dipole Moment (Debye)
         X       0.0000      Y       0.0000      Z       0.1186
       Tot       0.1186
    Quadrupole Moments (Debye-Ang)
        XX     -29.7194     XY       0.0000     YY     -36.8471
        XZ       0.0000     YZ       0.0000     ZZ     -26.2192
    Octapole Moments (Debye-Ang^2)
       XXX       0.0000    XXY       0.0000    XYY       0.0000
       YYY       0.0000    XXZ     -19.2696    XYZ       0.0000
       YYZ       0.4286    XZZ       0.0000    YZZ       0.0000
       ZZZ      -2.3009
    Hexadecapole Moments (Debye-Ang^3)
      XXXX    -534.1418   XXXY       0.0000   XXYY    -111.4754
      XYYY       0.0000   YYYY     -38.1228   XXXZ       0.0000
      XXYZ       0.0000   XYYZ       0.0000   YYYZ       0.0000
      XXZZ     -75.6535   XYZZ       0.0000   YYZZ     -48.5653
      XZZZ       0.0000   YZZZ       0.0000   ZZZZ    -194.3690
 -----------------------------------------------------------------
 Calculating analytic gradient of the SCF energy
 Gradient of SCF Energy
            1           2           3           4           5           6
    1   0.0000217  -0.0000018  -0.0000217   0.0000018  -0.0000669   0.0000669
    2   0.0000000   0.0000000   0.0000000   0.0000000   0.0000000   0.0000000
    3  -0.0002619   0.0001716  -0.0002619   0.0001716   0.0003108   0.0003108
            7           8           9          10
    1  -0.0001132  -0.0000144   0.0001132   0.0000144
    2   0.0000000  -0.0000000  -0.0000000  -0.0000000
    3  -0.0001183  -0.0001022  -0.0001183  -0.0001022
 Max gradient component =       3.108E-04
 RMS gradient           =       1.257E-04
 Gradient time:  CPU 6.18 s  wall 5.31 s

 Cartesian Hessian Update
 Hessian Updated using BFGS Update


** GEOMETRY OPTIMIZATION IN DELOCALIZED INTERNAL COORDINATES **
   Searching for a Minimum

   Optimization Cycle:   6

                       Coordinates (Angstroms)
     ATOM              X           Y           Z
    1  C           0.668750    0.000000    1.077265
    2  H           1.181337    0.000000    2.026922
    3  C          -0.668750    0.000000    1.077265
    4  H          -1.181337    0.000000    2.026922
    5  C           1.484277    0.000000   -0.081376
    6  C          -1.484277    0.000000   -0.081376
    7  H          -2.834896    0.000000   -1.889096
    8  C          -2.208733    0.000000   -1.034783
    9  H           2.834896    0.000000   -1.889096
   10  C           2.208733    0.000000   -1.034783
   Point Group: c2v   Number of degrees of freedom:   9


   Energy is   -230.701978080

 Hessian Updated using BFGS Update

  9 Hessian modes will be used to form the next step
  Hessian Eigenvalues:
     0.025068    0.155151    0.197222    0.217945    0.358647    0.403018
     0.432885    0.576114    1.118284

 Minimum Search - Taking Simple RFO Step
 Searching for Lamda that Minimizes Along All modes
 Value Taken    Lamda =  -0.00000137
 Step Taken.  Stepsize is  0.003023

                             Maximum     Tolerance    Cnvgd?
         Gradient           0.000394      0.000300      NO
         Displacement       0.001443      0.001200      NO
         Energy change     -0.000007      0.000001      NO


 New Cartesian Coordinates Obtained by Inverse Iteration

 Displacement from previous Coordinates is:  0.009763
 Writing REM_CC_EA           10
 ----------------------------------------------------
       Standard Nuclear Orientation (Angstroms)
    I     Atom         X            Y            Z
 ----------------------------------------------------
    1      C       0.668722     0.000000     1.078176
    2      H       1.182343     0.000000     2.027063
    3      C      -0.668722     0.000000     1.078176
    4      H      -1.182343     0.000000     2.027063
    5      C       1.483035     0.000000    -0.081450
    6      C      -1.483035     0.000000    -0.081450
    7      H      -2.832289     0.000000    -1.889856
    8      C      -2.207146     0.000000    -1.035001
    9      H       2.832289     0.000000    -1.889856
   10      C       2.207146     0.000000    -1.035001
 ----------------------------------------------------
 Molecular Point Group                 C2v   NOp =  4
 Largest Abelian Subgroup              C2v   NOp =  4
 Nuclear Repulsion Energy =   166.9511035418 hartrees
 There are       20 alpha and       20 beta electrons
 Applying Cartesian multipole field
    Component          Value
    ---------          -----
     (2,0,0)        1.00000E-11
     (0,2,0)        2.00000E-10
     (0,0,2)       -3.00000E-11
 Nucleus-field energy     =    -0.0000000006 hartrees
 Requested basis set is 6-31G(d)
 There are 32 shells and 98 basis functions
 A cutoff of  1.0D-11 yielded    482 shell pairs
 There are   4830 function pairs
Evaluating contribution to one-electron hamiltonian from nuclear
 Smallest overlap matrix eigenvalue = 2.41E-04
 Multipole matrices computed through 2nd order
 Guess MOs from SCF MO coefficient file
Reading MOs from coefficient file
Reading MOs from coefficient file
 An unrestricted hybrid HF-DFT SCF calculation will be
 performed using Pulay DIIS extrapolation
 Exchange:     0.5000 Hartree-Fock + 0.0800 Slater + 0.4200 Becke
 Correlation:  0.1900 VWN + 0.8100 LYP
 Using SG-1 standard quadrature grid
 SCF converges when DIIS error is below 1.0E-08
 ---------------------------------------
  Cycle       Energy         DIIS Error
 ---------------------------------------
    1    -230.7025465988      4.36E-05
    2    -230.7019788027      5.40E-06
    3    -230.7019788574      2.13E-06
    4    -230.7019788636      7.96E-07
    5    -230.7019788639      6.23E-07
    6    -230.7019788645      1.32E-07
    7    -230.7019788645      2.73E-08
    8    -230.7019788645      7.29E-09 Convergence criterion met
 ---------------------------------------
 <S^2> = 0.0000
 SCF time:  CPU 23.35 s  wall 14.75 s
 Analysis of SCF Wavefunction
 
 --------------------------------------------------------------
             Orbital Energies (a.u.) and Symmetries
 --------------------------------------------------------------
 
 Alpha MOs, Unrestricted
 -- Occupied --                  
-10.622 -10.621 -10.592 -10.592 -10.587 -10.587  -0.948  -0.875
  1 A1    1 B1    2 B1    2 A1    3 B1    3 A1    4 A1    4 B1                 
 -0.839  -0.740  -0.642  -0.603  -0.582  -0.549  -0.484  -0.419
  5 A1    5 B1    6 A1    6 B1    7 A1    8 A1    7 B1    1 B2                 
 -0.354  -0.334  -0.330  -0.275
  1 A2    9 A1    8 B1    2 B2                                                 
 -- Virtual --                   
 -0.009   0.085   0.118   0.142   0.172   0.173   0.193   0.216
  2 A2   10 A1    9 B1    3 B2   11 A1   10 B1   12 A1   11 B1                 
  0.229   0.299   0.433   0.465   0.490   0.495   0.507   0.566
  3 A2   13 A1   12 B1   14 A1   13 B1   15 A1   14 B1   16 A1                 
  0.569   0.621   0.644   0.649   0.666   0.687   0.744   0.756
  4 B2    4 A2   15 B1   17 A1    5 B2   16 B1    5 A2   18 A1                 
  0.783   0.815   0.821   0.857   0.891   0.924   0.935   0.959
  6 B2   17 B1   19 A1    6 A2   20 A1   18 B1   19 B1   21 A1                 
  1.019   1.035   1.119   1.158   1.290   1.308   1.361   1.394
 22 A1   20 B1   21 B1   23 A1   22 B1   24 A1   23 B1    7 B2                 
  1.510   1.530   1.573   1.600   1.629   1.641   1.654   1.671
  8 B2    7 A2   24 B1   25 A1    8 A2   26 A1   25 B1    9 B2                 
  1.680   1.748   1.821   1.953   1.998   2.017   2.064   2.070
 26 B1   27 A1   27 B1   10 B2   28 A1    9 A2   11 B2   29 A1                 
  2.098   2.112   2.128   2.265   2.367   2.437   2.508   2.681
 28 B1   10 A2   30 A1   31 A1   29 B1   11 A2   30 B1   32 A1                 
  2.729   2.806   2.880   2.920   2.965   3.274   3.487   3.642
 31 B1   12 B2   33 A1   32 B1   12 A2   33 B1   34 A1   34 B1                 
  4.209   4.294   4.384   4.436   4.724   5.027
 35 A1   35 B1   36 A1   36 B1   37 A1   37 B1                                 
 
 Beta MOs, Unrestricted
 -- Occupied --                  
-10.622 -10.621 -10.592 -10.592 -10.587 -10.587  -0.948  -0.875
  1 A1    1 B1    2 B1    2 A1    3 B1    3 A1    4 A1    4 B1                 
 -0.839  -0.740  -0.642  -0.603  -0.582  -0.549  -0.484  -0.419
  5 A1    5 B1    6 A1    6 B1    7 A1    8 A1    7 B1    1 B2                 
 -0.354  -0.334  -0.330  -0.275
  1 A2    9 A1    8 B1    2 B2                                                 
 -- Virtual --                   
 -0.009   0.085   0.118   0.142   0.172   0.173   0.193   0.216
  2 A2   10 A1    9 B1    3 B2   11 A1   10 B1   12 A1   11 B1                 
  0.229   0.299   0.433   0.465   0.490   0.495   0.507   0.566
  3 A2   13 A1   12 B1   14 A1   13 B1   15 A1   14 B1   16 A1                 
  0.569   0.621   0.644   0.649   0.666   0.687   0.744   0.756
  4 B2    4 A2   15 B1   17 A1    5 B2   16 B1    5 A2   18 A1                 
  0.783   0.815   0.821   0.857   0.891   0.924   0.935   0.959
  6 B2   17 B1   19 A1    6 A2   20 A1   18 B1   19 B1   21 A1                 
  1.019   1.035   1.119   1.158   1.290   1.308   1.361   1.394
 22 A1   20 B1   21 B1   23 A1   22 B1   24 A1   23 B1    7 B2                 
  1.510   1.530   1.573   1.600   1.629   1.641   1.654   1.671
  8 B2    7 A2   24 B1   25 A1    8 A2   26 A1   25 B1    9 B2                 
  1.680   1.748   1.821   1.953   1.998   2.017   2.064   2.070
 26 B1   27 A1   27 B1   10 B2   28 A1    9 A2   11 B2   29 A1                 
  2.098   2.112   2.128   2.265   2.367   2.437   2.508   2.681
 28 B1   10 A2   30 A1   31 A1   29 B1   11 A2   30 B1   32 A1                 
  2.729   2.806   2.880   2.920   2.965   3.274   3.487   3.642
 31 B1   12 B2   33 A1   32 B1   12 A2   33 B1   34 A1   34 B1                 
  4.209   4.294   4.384   4.436   4.724   5.027
 35 A1   35 B1   36 A1   36 B1   37 A1   37 B1                                 
 --------------------------------------------------------------
 
          Ground-State Mulliken Net Atomic Charges

     Atom                 Charge (a.u.)    Spin (a.u.)
  --------------------------------------------------------
      1 C                    -0.224998       0.000000
      2 H                     0.200368       0.000000
      3 C                    -0.224998       0.000000
      4 H                     0.200368       0.000000
      5 C                     0.323910       0.000000
      6 C                     0.323910       0.000000
      7 H                     0.244845       0.000000
      8 C                    -0.544126       0.000000
      9 H                     0.244845       0.000000
     10 C                    -0.544126       0.000000
  --------------------------------------------------------
  Sum of atomic charges =     0.000000
  Sum of spin   charges =     0.000000

 -----------------------------------------------------------------
                    Cartesian Multipole Moments
 -----------------------------------------------------------------
    Charge (ESU x 10^10)
                 0.0000
    Dipole Moment (Debye)
         X       0.0000      Y       0.0000      Z       0.1196
       Tot       0.1196
    Quadrupole Moments (Debye-Ang)
        XX     -29.7319     XY       0.0000     YY     -36.8458
        XZ       0.0000     YZ       0.0000     ZZ     -26.2113
    Octapole Moments (Debye-Ang^2)
       XXX       0.0000    XXY       0.0000    XYY       0.0000
       YYY       0.0000    XXZ     -19.2197    XYZ       0.0000
       YYZ       0.4233    XZZ       0.0000    YZZ       0.0000
       ZZZ      -2.3320
    Hexadecapole Moments (Debye-Ang^3)
      XXXX    -533.6964   XXXY       0.0000   XXYY    -111.3324
      XYYY       0.0000   YYYY     -38.1206   XXXZ       0.0000
      XXYZ       0.0000   XYYZ       0.0000   YYYZ       0.0000
      XXZZ     -75.5910   XYZZ       0.0000   YYZZ     -48.5933
      XZZZ       0.0000   YZZZ       0.0000   ZZZZ    -194.4773
 -----------------------------------------------------------------
 Calculating analytic gradient of the SCF energy
 Gradient of SCF Energy
            1           2           3           4           5           6
    1   0.0000146  -0.0000013  -0.0000146   0.0000013  -0.0000331   0.0000331
    2  -0.0000000   0.0000000  -0.0000000   0.0000000  -0.0000000  -0.0000000
    3  -0.0000400   0.0000309  -0.0000400   0.0000309   0.0000413   0.0000413
            7           8           9          10
    1  -0.0000228  -0.0000081   0.0000228   0.0000081
    2   0.0000000   0.0000000   0.0000000   0.0000000
    3  -0.0000158  -0.0000164  -0.0000158  -0.0000164
 Max gradient component =       4.134E-05
 RMS gradient           =       2.109E-05
 Gradient time:  CPU 6.07 s  wall 5.39 s

 Cartesian Hessian Update
 Hessian Updated using BFGS Update


** GEOMETRY OPTIMIZATION IN DELOCALIZED INTERNAL COORDINATES **
   Searching for a Minimum

   Optimization Cycle:   7

                       Coordinates (Angstroms)
     ATOM              X           Y           Z
    1  C           0.668722    0.000000    1.078176
    2  H           1.182343    0.000000    2.027063
    3  C          -0.668722    0.000000    1.078176
    4  H          -1.182343    0.000000    2.027063
    5  C           1.483035    0.000000   -0.081450
    6  C          -1.483035    0.000000   -0.081450
    7  H          -2.832289    0.000000   -1.889856
    8  C          -2.207146    0.000000   -1.035001
    9  H           2.832289    0.000000   -1.889856
   10  C           2.207146    0.000000   -1.035001
[...]
   24  -0.0014688  -0.0000000   0.0038398  -0.5453482  -0.0000000  -0.7602067
   25   0.0019170  -0.0000000   0.0002466  -0.0000711   0.0000000  -0.0000787
   26  -0.0000000   0.0016844   0.0000000   0.0000000   0.0007794  -0.0000000
   27  -0.0015376  -0.0000000   0.0042142   0.0000167  -0.0000000  -0.0001022
   28  -0.4489380   0.0000000   0.5451094  -0.0015517  -0.0000000  -0.0018760
   29   0.0000000  -0.0388853  -0.0000000  -0.0000000  -0.0003485   0.0000000
   30   0.5453482  -0.0000000  -0.7602067   0.0014688   0.0000000   0.0038398
           19          20          21          22          23          24
    1   0.0002962   0.0000000  -0.0003972   0.0081239  -0.0000000   0.0125475
    2  -0.0000000  -0.0007936   0.0000000   0.0000000   0.0023452   0.0000000
    3   0.0010211   0.0000000  -0.0003942  -0.0030475  -0.0000000  -0.0066703
    4   0.0001763  -0.0000000  -0.0001108  -0.0004432  -0.0000000  -0.0009331
    5   0.0000000  -0.0005324   0.0000000  -0.0000000  -0.0010160  -0.0000000
    6   0.0000208  -0.0000000   0.0000008   0.0000541   0.0000000   0.0002882
    7   0.0046235   0.0000000  -0.0027636  -0.0077522  -0.0000000  -0.0252026
    8  -0.0000000   0.0064441  -0.0000000  -0.0000000   0.0070044  -0.0000000
    9  -0.0031104   0.0000000   0.0024151  -0.0124912   0.0000000  -0.0095019
   10  -0.0004787  -0.0000000   0.0004364  -0.0025465   0.0000000  -0.0013058
   11   0.0000000  -0.0000785  -0.0000000   0.0000000   0.0006523   0.0000000
   12  -0.0005125   0.0000000   0.0004168  -0.0006170   0.0000000   0.0002952
   13  -0.0000711  -0.0000000  -0.0000167  -0.0015517  -0.0000000  -0.0014688
   14  -0.0000000   0.0007794  -0.0000000  -0.0000000  -0.0003485  -0.0000000
   15   0.0000787  -0.0000000  -0.0001022   0.0018760   0.0000000   0.0038398
   16   0.0019170  -0.0000000   0.0015376  -0.4489380  -0.0000000  -0.5453482
   17   0.0000000   0.0016844   0.0000000  -0.0000000  -0.0388853  -0.0000000
   18  -0.0002466  -0.0000000   0.0042142  -0.5451094  -0.0000000  -0.7602067
   19   0.1640063   0.0000000   0.2029806  -0.1704842  -0.0000000  -0.2002650
   20   0.0000000   0.0144552  -0.0000000  -0.0000000  -0.0217565   0.0000000
   21   0.2029806  -0.0000000   0.2931538  -0.2017648   0.0000000  -0.2996284
   22  -0.1704842  -0.0000000  -0.2017648   0.6232205   0.0000000   0.7616037
   23  -0.0000000  -0.0217565   0.0000000   0.0000000   0.0516959   0.0000000
   24  -0.2002650   0.0000000  -0.2996284   0.7616037   0.0000000   1.0720449
   25  -0.0000704   0.0000000   0.0000013   0.0000851  -0.0000000  -0.0000345
   26   0.0000000   0.0000983  -0.0000000  -0.0000000  -0.0003003  -0.0000000
   27  -0.0000013  -0.0000000   0.0000562  -0.0000971   0.0000000  -0.0001322
   28   0.0000851  -0.0000000   0.0000971   0.0002864   0.0000000   0.0004068
   29   0.0000000  -0.0003003   0.0000000   0.0000000   0.0006090   0.0000000
   30   0.0000345   0.0000000  -0.0001322  -0.0004068  -0.0000000  -0.0003284
           25          26          27          28          29          30
    1   0.0046235   0.0000000   0.0027636  -0.0077522   0.0000000   0.0252026
    2   0.0000000   0.0064441  -0.0000000  -0.0000000   0.0070044   0.0000000
    3   0.0031104  -0.0000000   0.0024151   0.0124912  -0.0000000  -0.0095019
    4  -0.0004787   0.0000000  -0.0004364  -0.0025465  -0.0000000   0.0013058
    5   0.0000000  -0.0000785   0.0000000  -0.0000000   0.0006523   0.0000000
    6   0.0005125  -0.0000000   0.0004168   0.0006170   0.0000000   0.0002952
    7   0.0002962  -0.0000000   0.0003972   0.0081239   0.0000000  -0.0125475
    8  -0.0000000  -0.0007936   0.0000000   0.0000000   0.0023452  -0.0000000
    9  -0.0010211   0.0000000  -0.0003942   0.0030475  -0.0000000  -0.0066703
   10   0.0001763   0.0000000   0.0001108  -0.0004432   0.0000000   0.0009331
   11  -0.0000000  -0.0005324   0.0000000   0.0000000  -0.0010160  -0.0000000
   12  -0.0000208  -0.0000000   0.0000008  -0.0000541   0.0000000   0.0002882
   13   0.0019170  -0.0000000  -0.0015376  -0.4489380   0.0000000   0.5453482
   14  -0.0000000   0.0016844  -0.0000000   0.0000000  -0.0388853  -0.0000000
   15   0.0002466   0.0000000   0.0042142   0.5451094  -0.0000000  -0.7602067
   16  -0.0000711   0.0000000   0.0000167  -0.0015517  -0.0000000   0.0014688
   17   0.0000000   0.0007794  -0.0000000  -0.0000000  -0.0003485   0.0000000
   18  -0.0000787  -0.0000000  -0.0001022  -0.0018760   0.0000000   0.0038398
   19  -0.0000704   0.0000000  -0.0000013   0.0000851   0.0000000   0.0000345
   20   0.0000000   0.0000983  -0.0000000  -0.0000000  -0.0003003   0.0000000
   21   0.0000013  -0.0000000   0.0000562   0.0000971   0.0000000  -0.0001322
   22   0.0000851  -0.0000000  -0.0000971   0.0002864   0.0000000  -0.0004068
   23  -0.0000000  -0.0003003   0.0000000   0.0000000   0.0006090  -0.0000000
   24  -0.0000345  -0.0000000  -0.0001322   0.0004068   0.0000000  -0.0003284
   25   0.1640063  -0.0000000  -0.2029806  -0.1704842   0.0000000   0.2002650
   26  -0.0000000   0.0144552   0.0000000   0.0000000  -0.0217565  -0.0000000
   27  -0.2029806   0.0000000   0.2931538   0.2017648   0.0000000  -0.2996284
   28  -0.1704842   0.0000000   0.2017648   0.6232205  -0.0000000  -0.7616037
   29   0.0000000  -0.0217565   0.0000000  -0.0000000   0.0516959   0.0000000
   30   0.2002650  -0.0000000  -0.2996284  -0.7616037   0.0000000   1.0720449
 Gradient time:  CPU 407.81 s  wall 407.13 s
 **********************************************************************
 **                                                                  **
 **                       VIBRATIONAL ANALYSIS                       **
 **                       --------------------                       **
 **                                                                  **
 **        VIBRATIONAL FREQUENCIES (CM**-1) AND NORMAL MODES         **
 **     FORCE CONSTANTS (mDYN/ANGSTROM) AND REDUCED MASSES (AMU)     **
 **                  INFRARED INTENSITIES (KM/MOL)                   **
 **                                                                  **
 **********************************************************************
 

 Mode:                 1                      2                      3
 Frequency:       112.37                 244.03                 274.16
 Force Cnst:      0.0334                 0.1262                 0.1926
 Red. Mass:       4.4893                 3.5970                 4.3499
 IR Active:          YES                    NO                     YES
 IR Intens:        0.108                  0.000                  4.622
 Raman Active:       YES                    YES                    YES
               X      Y      Z        X      Y      Z        X      Y      Z
 C          0.000  0.000  0.114    0.000  0.223  0.000   -0.078  0.000 -0.157
 H          0.045  0.000  0.089    0.000  0.408  0.000    0.115  0.000 -0.258
 C          0.000  0.000  0.114    0.000 -0.223  0.000   -0.078  0.000  0.157
 H         -0.045  0.000  0.089    0.000 -0.408  0.000    0.115  0.000  0.258
 C         -0.116  0.000  0.033    0.000  0.198  0.000   -0.167  0.000 -0.231
 C          0.116  0.000  0.033    0.000 -0.198  0.000   -0.167  0.000  0.231
 H          0.513  0.000 -0.262    0.000  0.464  0.000    0.462  0.000 -0.234
 C          0.336  0.000 -0.133    0.000  0.169  0.000    0.196  0.000 -0.040
 H         -0.513  0.000 -0.262    0.000 -0.464  0.000    0.462  0.000  0.234
 C         -0.336  0.000 -0.133    0.000 -0.169  0.000    0.196  0.000  0.040
 TransDip   0.000  0.000 -0.011    0.000  0.000  0.000    0.069  0.000  0.000

 Mode:                 4                      5                      6
 Frequency:       394.12                 471.54                 637.28
 Force Cnst:      0.2481                 0.7589                 1.1809
 Red. Mass:       2.7109                 5.7927                 4.9351
 IR Active:          YES                    YES                    NO 
 IR Intens:       15.863                  6.470                  0.000
 Raman Active:       YES                    YES                    YES
               X      Y      Z        X      Y      Z        X      Y      Z
 C          0.000 -0.058  0.000    0.023  0.000 -0.040    0.000 -0.276  0.000
 H          0.000 -0.540  0.000   -0.216  0.000  0.092    0.000 -0.552  0.000
 C          0.000 -0.058  0.000   -0.023  0.000 -0.040    0.000  0.276  0.000
 H          0.000 -0.540  0.000    0.216  0.000  0.092    0.000  0.552  0.000
 C          0.000  0.247  0.000    0.400  0.000  0.194    0.000  0.309  0.000
 C          0.000  0.247  0.000   -0.400  0.000  0.194    0.000 -0.309  0.000
 H          0.000 -0.361  0.000    0.319  0.000 -0.355    0.000  0.130  0.000
 C          0.000 -0.114  0.000    0.017  0.000 -0.132    0.000  0.085  0.000
 H          0.000 -0.361  0.000   -0.319  0.000 -0.355    0.000 -0.130  0.000
 C          0.000 -0.114  0.000   -0.017  0.000 -0.132    0.000 -0.085  0.000
 TransDip   0.000 -0.128  0.000    0.000  0.000 -0.081    0.000  0.000  0.000

 Mode:                 7                      8                      9
 Frequency:       680.14                 687.57                 709.89
 Force Cnst:      0.3378                 0.3558                 0.3779
 Red. Mass:       1.2395                 1.2774                 1.2728
 IR Active:          NO                     YES                    YES
 IR Intens:        0.000                 96.129                 61.346
 Raman Active:       YES                    YES                    YES
               X      Y      Z        X      Y      Z        X      Y      Z
 C          0.000 -0.018  0.000    0.000  0.008  0.000    0.003  0.000  0.005
 H          0.000 -0.058  0.000    0.000 -0.009  0.000   -0.010  0.000  0.012
 C          0.000  0.018  0.000    0.000  0.008  0.000    0.003  0.000 -0.005
 H          0.000  0.058  0.000    0.000 -0.009  0.000   -0.010  0.000 -0.012
 C          0.000 -0.023  0.000    0.000  0.038  0.000    0.031  0.000  0.021
 C          0.000  0.023  0.000    0.000  0.038  0.000    0.031  0.000 -0.021
 H          0.000  0.697  0.000    0.000  0.698  0.000    0.566  0.000 -0.409
 C          0.000 -0.098  0.000    0.000 -0.104  0.000   -0.081  0.000  0.063
 H          0.000 -0.697  0.000    0.000  0.698  0.000    0.566  0.000  0.409
 C          0.000  0.098  0.000    0.000 -0.104  0.000   -0.081  0.000 -0.063
 TransDip   0.000  0.000  0.000    0.000  0.314  0.000    0.251  0.000  0.000

 Mode:                10                     11                     12
 Frequency:       712.05                 769.85                 822.55
 Force Cnst:      0.3820                 2.2363                 0.5998
 Red. Mass:       1.2787                 6.4043                 1.5047
 IR Active:          YES                    YES                    YES
 IR Intens:       26.361                  1.529                 28.825
 Raman Active:       YES                    YES                    YES
               X      Y      Z        X      Y      Z        X      Y      Z
 C         -0.001  0.000  0.000    0.321  0.000  0.174    0.000 -0.124  0.000
 H         -0.017  0.000  0.009    0.403  0.000  0.128    0.000  0.689  0.000
 C          0.001  0.000  0.000    0.321  0.000 -0.174    0.000 -0.124  0.000
 H          0.017  0.000  0.009    0.403  0.000 -0.128    0.000  0.689  0.000
 C          0.032  0.000  0.025   -0.277  0.000 -0.032    0.000  0.084  0.000
 C         -0.032  0.000  0.025   -0.277  0.000  0.032    0.000  0.084  0.000
 H         -0.563  0.000  0.413    0.045  0.000 -0.272    0.000 -0.054  0.000
 C          0.084  0.000 -0.061   -0.081  0.000 -0.166    0.000 -0.014  0.000
 H          0.563  0.000  0.413    0.045  0.000  0.272    0.000 -0.054  0.000
 C         -0.084  0.000 -0.061   -0.081  0.000  0.166    0.000 -0.014  0.000
 TransDip   0.000  0.000  0.164    0.040  0.000  0.000    0.000  0.172  0.000

 Mode:                13                     14                     15
 Frequency:       928.00                1030.83                1079.22
 Force Cnst:      3.1086                 0.8056                 1.9903
 Red. Mass:       6.1267                 1.2867                 2.9003
 IR Active:          YES                    NO                     YES
 IR Intens:        5.521                  0.000                 16.635
 Raman Active:       YES                    YES                    YES
               X      Y      Z        X      Y      Z        X      Y      Z
 C          0.090  0.000  0.360    0.000 -0.113  0.000   -0.040  0.000  0.227
 H          0.368  0.000  0.228    0.000  0.698  0.000   -0.440  0.000  0.442
 C         -0.090  0.000  0.360    0.000  0.113  0.000   -0.040  0.000 -0.227
 H         -0.368  0.000  0.228    0.000 -0.698  0.000   -0.440  0.000 -0.442
 C          0.064  0.000 -0.164    0.000  0.004  0.000   -0.024  0.000 -0.113
 C         -0.064  0.000 -0.164    0.000 -0.004  0.000   -0.024  0.000  0.113
 H         -0.213  0.000 -0.185    0.000  0.021  0.000    0.118  0.000  0.105
 C         -0.157  0.000 -0.199    0.000 -0.002  0.000    0.091  0.000  0.105
 H          0.213  0.000 -0.185    0.000 -0.021  0.000    0.118  0.000 -0.105
 C          0.157  0.000 -0.199    0.000  0.002  0.000    0.091  0.000 -0.105
 TransDip   0.000  0.000  0.075    0.000  0.000  0.000   -0.131  0.000  0.000

 Mode:                16                     17                     18
 Frequency:      1298.72                1486.44                1747.25
 Force Cnst:      1.0905                 1.9381                12.4348
 Red. Mass:       1.0973                 1.4888                 6.9132
 IR Active:          YES                    YES                    YES
 IR Intens:        0.079                  2.518                  3.616
 Raman Active:       YES                    YES                    YES
               X      Y      Z        X      Y      Z        X      Y      Z
 C          0.044  0.000 -0.019   -0.087  0.000  0.114    0.507  0.000 -0.077
 H          0.623  0.000 -0.328    0.635  0.000 -0.271   -0.257  0.000  0.395
 C         -0.044  0.000 -0.019   -0.087  0.000 -0.114   -0.507  0.000 -0.077
 H         -0.623  0.000 -0.328    0.635  0.000  0.271    0.257  0.000  0.395
 C          0.021  0.000  0.028    0.013  0.000  0.007   -0.024  0.000 -0.022
 C         -0.021  0.000  0.028    0.013  0.000 -0.007    0.024  0.000 -0.022
 H          0.024  0.000  0.017    0.021  0.000  0.036    0.037  0.000  0.092
 C          0.016  0.000  0.017    0.019  0.000  0.028    0.038  0.000  0.058
 H         -0.024  0.000  0.017    0.021  0.000 -0.036   -0.037  0.000  0.092
 C         -0.016  0.000  0.017    0.019  0.000 -0.028   -0.038  0.000  0.058
 TransDip   0.000  0.000 -0.009   -0.051  0.000  0.000    0.000  0.000 -0.061

 Mode:                19                     20                     21
 Frequency:      2312.72                2327.85                3284.12
 Force Cnst:     18.9930                19.2097                 6.8903
 Red. Mass:       6.0269                 6.0167                 1.0843
 IR Active:          YES                    YES                    YES
 IR Intens:        5.173                  0.340                  1.144
 Raman Active:       YES                    YES                    YES
               X      Y      Z        X      Y      Z        X      Y      Z
 C          0.042  0.000 -0.053   -0.043  0.000  0.056    0.028  0.000  0.052
 H          0.001  0.000 -0.037    0.013  0.000  0.025   -0.332  0.000 -0.621
 C         -0.042  0.000 -0.053   -0.043  0.000 -0.056    0.028  0.000 -0.052
 H         -0.001  0.000 -0.037    0.013  0.000 -0.025   -0.332  0.000  0.621
 C         -0.232  0.000  0.309    0.231  0.000 -0.310    0.000  0.000  0.000
 C          0.232  0.000  0.309    0.231  0.000  0.310    0.000  0.000  0.000
 H         -0.311  0.000 -0.417   -0.311  0.000 -0.418    0.001  0.000  0.001
 C         -0.165  0.000 -0.218   -0.164  0.000 -0.216    0.000  0.000  0.000
 H          0.311  0.000 -0.417   -0.311  0.000  0.418    0.001  0.000 -0.001
 C          0.165  0.000 -0.218   -0.164  0.000  0.216    0.000  0.000  0.000
 TransDip   0.000  0.000 -0.073   -0.019  0.000  0.000   -0.034  0.000  0.000

 Mode:                22                     23                     24
 Frequency:      3301.34                3594.49                3594.69
 Force Cnst:      7.0304                 8.8435                 8.8372
 Red. Mass:       1.0948                 1.1617                 1.1608
 IR Active:          YES                    YES                    YES
 IR Intens:       10.237                 67.212                 66.280
 Raman Active:       YES                    YES                    YES
               X      Y      Z        X      Y      Z        X      Y      Z
 C         -0.034  0.000 -0.053   -0.001  0.000  0.001    0.000  0.000 -0.001
 H          0.335  0.000  0.620    0.001  0.000  0.002    0.000  0.000  0.000
 C          0.034  0.000 -0.053   -0.001  0.000 -0.001    0.000  0.000 -0.001
 H         -0.335  0.000  0.620    0.001  0.000 -0.002    0.000  0.000  0.000
 C         -0.001  0.000  0.001    0.014  0.000 -0.018   -0.013  0.000  0.018
 C          0.001  0.000  0.001    0.014  0.000  0.018    0.013  0.000  0.018
 H         -0.001  0.000 -0.002    0.414  0.000  0.567    0.414  0.000  0.567
 C          0.000  0.000  0.000   -0.048  0.000 -0.065   -0.048  0.000 -0.065
 H          0.001  0.000 -0.002    0.414  0.000 -0.567   -0.414  0.000  0.567
 C          0.000  0.000  0.000   -0.048  0.000  0.065    0.048  0.000 -0.065
 TransDip   0.000  0.000 -0.102    0.263  0.000  0.000    0.000  0.000  0.261

 STANDARD THERMODYNAMIC QUANTITIES AT   298.18 K  AND     1.00 ATM

   This Molecule has  0 Imaginary Frequencies
   Zero point vibrational energy:       46.463 kcal/mol

   Atom    1 Element C  Has Mass   12.00000
   Atom    2 Element H  Has Mass    1.00783
   Atom    3 Element C  Has Mass   12.00000
   Atom    4 Element H  Has Mass    1.00783
   Atom    5 Element C  Has Mass   12.00000
   Atom    6 Element C  Has Mass   12.00000
   Atom    7 Element H  Has Mass    1.00783
   Atom    8 Element C  Has Mass   12.00000
   Atom    9 Element H  Has Mass    1.00783
   Atom   10 Element C  Has Mass   12.00000
   Molecular Mass:    76.031320 amu
   Principal axes and moments of inertia in atomic units:
                           1         2         3
    Eigenvalues --    247.27387 712.14502 959.41889
          X             1.00000   0.00000   0.00000
          Y             0.00000   0.00000   1.00000
          Z             0.00000   1.00000   0.00000
   Rotational Symmetry Number is   2
   The Molecule is an Asymmetric Top
   Translational Enthalpy:        0.889 kcal/mol
   Rotational Enthalpy:           0.889 kcal/mol
   Vibrational Enthalpy:         48.410 kcal/mol
   gas constant (RT):             0.593 kcal/mol
   Translational Entropy:        38.902  cal/mol.K
   Rotational Entropy:           25.249  cal/mol.K
   Vibrational Entropy:          10.661  cal/mol.K

   Total Enthalpy:               50.781 kcal/mol
   Total Entropy:                74.812  cal/mol.K
Archival summary:
1\1\node07\FREQ\ProcedureUnspecified\6-31G*\C6H4\rkanters\25Feb2009\0\\#,FREQ,ProcedureUnspecified,6-31G*,\\0,1\C\H,1,1.07898\C,1,1.33744,2,118.426\H,3,1.07898,1,118.426,2,0,0\C,3,1.41698,1,125.077,2,180,0\C,5,1.19733,3,177.865,1,-180,0\H,6,1.05905,5,178.965,3,-180,0\C,1,1.41698,2,116.497,3,-180,0\C,8,1.19733,1,177.865,2,0,0\H,9,1.05905,8,178.965,1,180,0\\\@

 Total job time:  410.67s(wall), 414.09s(cpu) 
 Wed Feb 25 10:38:22 2009

        *************************************************************
        *                                                           *
        *  Thank you very much for using Q-Chem.  Have a nice day.  *
        *                                                           *
        *************************************************************


0 sent ACK to 0 
now end server 0 ... 
