Process 0 of 1 is on node08 - thread support 1
initial socket setup ...start
initial socket setup ...done 
now start server 0 ... 
                  Welcome to Q-Chem
     A Quantum Leap Into The Future Of Chemistry

 Y. Shao, L. Fusti-Molnar, Y. Jung, J. Kussmann, C. Ochsenfeld,
 S. T. Brown, A. T. B. Gilbert, L. V. Slipchenko,S. V. Levchenko,
 D. P. O'Neill, R. A. DiStasio Jr., R. C. Lochan, T. Wang,
 G. J. O. Beran, N. A. Besley, J. M. Herbert, C. Y. Lin,
 T. Van Voorhis, S. H. Chien, A. Sodt, R. P. Steele, 
 V. A. Rassolov, P. E. Maslen, P. P. Korambath, R. D. Adamson,
 B. Austin, J. Baker, E. F. C. Byrd, H. Dachsel, R. J. Doerksen,
 A. Dreuw, B. D. Dunietz, A. D. Dutoi, T. R. Furlani,
 S. R. Gwaltney, A. Heyden, S. Hirata, C.-P. Hsu, G. Kedziora,
 R. Z. Khaliullin, P. Klunzinger, A. M. Lee, M. S. Lee, W. Liang,
 I. Lotan, N. Nair, B. Peters, E. I. Proynov, P. A. Pieniazek, 
 Y. M. Rhee, J. Ritchie, E. Rosta, C. D. Sherrill, 
 A. C. Simmonett, J. E. Subotnik, H. L. Woodcock III,
 W. Zhang, A. T. Bell, A. K. Chakraborty, D. M. Chipman,
 F. J. Keil, A. Warshel, W. J. Hehre, H. F. Schaefer III,
 J. Kong, A. I. Krylov, P. M. W. Gill, M. Head-Gordon,
 Q-Chem, Version 3.1, Q-Chem, Inc., Pittsburgh, PA (2007).

 Additional authors for Version 3.1: 
 Z. Gan, Y. Zhao, N. E. Schultz, D. Truhlar, E. Epifanovsky and M. Oana.

 Additional authors for Version 3.2: 
 R. Baer, B. R. Brooks, D. Casanova, J.-D. Chai, C.-L. Cheng, 
 C. Cramer, D. Crittenden, A. Ghysels, G. Hawkins, E. G. Hohenstein, 
 C. Kelley, W. Kurlancheek, D. Liotard, E. Livshits, P. Manohar, 
 A. Marenich, D. Neuhauser, R. Olson, M. A. Rohrdanz, K. S. Thanthiriwatte, 
 A. J. W. Thom, V. Vanovschi, C. F. Williams, Q. Wu and Z.-Q. You. 


 Intel X86 EM64T Linux Version

 Q-chem begins on Wed Mar 11 18:33:09 2009  

 Parallel job on  1  processors
Processing $rem in /usr/local/qchem3201/config/preferences.

theFileMan(): MAXOPENFILES=974 MAX_SUB_FILE_NUM=16
Maximum size of a physical file is 2.0 GB, maximum size of a tmp-file is 32.0 GB


--------------------------------------------------------------
User input:
--------------------------------------------------------------
$comment
 optimized water
$end

$molecule
0 1
 O 
 H  1 0.968704
 H  1 0.968704 2 103.652373
$end

$rem
  jobtype             sp
  exchange            b3lyp
  basis               6-31G*
  print_general_basis true
  print_orbitals      true
  molden_format       true   so I can verify the order of the d orbitals
$end


--------------------------------------------------------------
 Writing REM_CC_EA            0
 ----------------------------------------------------
       Standard Nuclear Orientation (Angstroms)
    I     Atom         X            Y            Z
 ----------------------------------------------------
    1      O       0.000000     0.000000     0.119741
    2      H      -0.761536     0.000000    -0.478965
    3      H       0.761536     0.000000    -0.478965
 ----------------------------------------------------
 Molecular Point Group                 C2v   NOp =  4
 Largest Abelian Subgroup              C2v   NOp =  4
 Nuclear Repulsion Energy =     9.0878146316 hartrees
 There are        5 alpha and        5 beta electrons
 Requested basis set is 6-31G(d)
Basis set in general basis input format:
-----------------------------------------------------------------------
$basis
O    0
S    6    1.000000
   5.48467170E+03    1.83110000E-03 
   8.25234950E+02    1.39501000E-02 
   1.88046960E+02    6.84451000E-02 
   5.29645000E+01    2.32714300E-01 
   1.68975700E+01    4.70193000E-01 
   5.79963530E+00    3.58520900E-01 
SP   3    1.000000
   1.55396160E+01   -1.10777500E-01   7.08743000E-02 
   3.59993360E+00   -1.48026300E-01   3.39752800E-01 
   1.01376180E+00    1.13076700E+00   7.27158600E-01 
SP   1    1.000000
   2.70005800E-01    1.00000000E+00   1.00000000E+00 
D    1    1.000000
   8.00000000E-01    1.00000000E+00 
****
H    0
S    3    1.000000
   1.87311370E+01    3.34946000E-02 
   2.82539370E+00    2.34726950E-01 
   6.40121700E-01    8.13757330E-01 
S    1    1.000000
   1.61277800E-01    1.00000000E+00 
****
H    0
S    3    1.000000
   1.87311370E+01    3.34946000E-02 
   2.82539370E+00    2.34726950E-01 
   6.40121700E-01    8.13757330E-01 
S    1    1.000000
   1.61277800E-01    1.00000000E+00 
****
$end
-----------------------------------------------------------------------
 There are 8 shells and 19 basis functions

Total QAlloc Memory Limit   2000 MB
Mega-Array Size        61 MB
MEM_STATIC part        62 MB

                       Distance Matrix (Angstroms)
             O (  1)   H (  2)
   H (  2)  0.968704
   H (  3)  0.968704  1.523073
 
 A cutoff of  1.0D-08 yielded     36 shell pairs
 There are    217 function pairs
Evaluating contribution to one-electron hamiltonian from nuclear
 Smallest overlap matrix eigenvalue = 2.27E-02
 Multipole matrices computed through 2nd order

  Scale SEOQF with 1.000000e+00/1.000000e+00/1.000000e+00

 Standard Electronic Orientation quadrupole field applied
 Nucleus-field energy     =    -0.0000000002 hartrees
 Guess from superposition of atomic densities
 Warning:  Energy on first SCF cycle will be non-variational
 A restricted hybrid HF-DFT SCF calculation will be
 performed using Pulay DIIS extrapolation
 Exchange:     0.2000 Hartree-Fock + 0.0800 Slater + 0.7200 Becke
 Correlation:  0.8100 LYP + 0.1900 VWN1RPA
 Using SG-1 standard quadrature grid
 SCF converges when DIIS error is below 1.0E-05
 ---------------------------------------
  Cycle       Energy         DIIS Error
 ---------------------------------------
    1     -76.3889862143      1.63E-01
    2     -76.3407718024      4.49E-02
    3     -76.3055052555      5.65E-02
    4     -76.4088954083      1.20E-03
    5     -76.4089529193      2.11E-04
    6     -76.4089374465      2.41E-05
    7     -76.4089354423      9.26E-07 Convergence criterion met
 ---------------------------------------
 SCF time:  CPU 6.25 s  wall 5.84 s
 Analysis of SCF Wavefunction
 
 --------------------------------------------------------------
             Orbital Energies (a.u.) and Symmetries
 --------------------------------------------------------------
 
 Alpha MOs, Restricted
 -- Occupied --                  
-19.138  -0.998  -0.517  -0.372  -0.291
  1 A1    2 A1    1 B1    3 A1    1 B2                                         
 -- Virtual --                   
  0.063   0.148   0.772   0.861   0.891   0.895   1.066   1.193
  4 A1    2 B1    3 B1    5 A1    2 B2    6 A1    4 B1    7 A1                 
  1.729   1.746   1.780   2.281   2.577   3.552
  8 A1    1 A2    3 B2    9 A1    5 B1   10 A1                                 
 
 Beta MOs, Restricted
 -- Occupied --                  
-19.138  -0.998  -0.517  -0.372  -0.291
  1 A1    2 A1    1 B1    3 A1    1 B2                                         
 -- Virtual --                   
  0.063   0.148   0.772   0.861   0.891   0.895   1.066   1.193
  4 A1    2 B1    3 B1    5 A1    2 B2    6 A1    4 B1    7 A1                 
  1.729   1.746   1.780   2.281   2.577   3.552
  8 A1    1 A2    3 B2    9 A1    5 B1   10 A1                                 
 --------------------------------------------------------------
 

                        RESTRICTED (RHF) MOLECULAR ORBITAL COEFFICIENTS
                         1         2         3         4         5         6
 eigenvalues:        -19.138    -0.998    -0.517    -0.372    -0.291     0.063
   1  O     s        0.99286  -0.20950   0.00000  -0.08810   0.00000   0.10064
   2  O     s        0.02622   0.46921   0.00000   0.17726   0.00000  -0.11929
   3  O     px       0.00000   0.00000   0.51744   0.00000   0.00000   0.00001
   4  O     py       0.00000   0.00000   0.00000   0.00000   0.64458   0.00000
   5  O     pz      -0.00110  -0.12769   0.00000   0.55181   0.00000   0.28067
   6  O     s        0.01011   0.43952   0.00000   0.41043   0.00000  -1.25784
   7  O     px       0.00000   0.00000   0.26976   0.00000   0.00000   0.00001
   8  O     py       0.00000   0.00000   0.00000   0.00000   0.50605   0.00000
   9  O     pz       0.00000  -0.06065   0.00000   0.37214   0.00000   0.47747
  10  O     dxx     -0.00777   0.01878   0.00000   0.00088   0.00000   0.04509
  11  O     dxy      0.00000   0.00000   0.00000   0.00000   0.00000   0.00000
  12  O     dyy     -0.00772  -0.01094   0.00000  -0.00026   0.00000   0.05804
  13  O     dxz      0.00000   0.00000  -0.04127   0.00000   0.00000   0.00000
  14  O     dyz      0.00000   0.00000   0.00000   0.00000  -0.03544   0.00000
  15  O     dzz     -0.00775   0.01607   0.00000  -0.05242   0.00000   0.02731
  16  H 1   s        0.00037   0.13914  -0.23744  -0.14373   0.00000   0.09628
  17  H 1   s       -0.00103   0.00645  -0.14196  -0.11428   0.00000   0.96908
  18  H 2   s        0.00037   0.13914   0.23744  -0.14373   0.00000   0.09627
  19  H 2   s       -0.00103   0.00645   0.14195  -0.11428   0.00000   0.96905
                         7         8         9        10
 eigenvalues:          0.148     0.772     0.861     0.891
   1  O     s        0.00000   0.00000   0.03777   0.00000
   2  O     s        0.00000   0.00000  -0.13536   0.00001
   3  O     px      -0.41346   0.17222   0.00000   0.00000
   4  O     py       0.00000   0.00000   0.00000  -0.95944
   5  O     pz       0.00000   0.00000   0.70797   0.00000
   6  O     s       -0.00002   0.00000   0.13502  -0.00001
   7  O     px      -0.75881   0.43053   0.00000   0.00000
   8  O     py       0.00000   0.00000   0.00000   1.03862
   9  O     pz       0.00001   0.00000  -0.38340  -0.00001
  10  O     dxx      0.00000   0.00000   0.15356   0.00000
  11  O     dxy      0.00000   0.00000   0.00000   0.00000
  12  O     dyy      0.00000   0.00000  -0.11922   0.00000
  13  O     dxz      0.01844   0.19602   0.00000   0.00000
  14  O     dyz      0.00000   0.00000   0.00000  -0.01640
  15  O     dzz      0.00000   0.00000   0.01181   0.00000
  16  H 1   s       -0.10735   0.84022   0.71165   0.00000
  17  H 1   s       -1.27778  -0.65528  -0.55196   0.00000
  18  H 2   s        0.10735  -0.84021   0.71166   0.00000
  19  H 2   s        1.27781   0.65528  -0.55196   0.00000
 
          Ground-State Mulliken Net Atomic Charges

     Atom                 Charge (a.u.)
  ----------------------------------------
      1 O                    -0.774324
      2 H                     0.387158
      3 H                     0.387166
  ----------------------------------------
  Sum of atomic charges =     0.000000

 -----------------------------------------------------------------
                    Cartesian Multipole Moments
 -----------------------------------------------------------------
    Charge (ESU x 10^10)
                 0.0000
    Dipole Moment (Debye)
         X       0.0000      Y       0.0000      Z      -2.0953
       Tot       2.0953
    Quadrupole Moments (Debye-Ang)
        XX      -4.2866     XY       0.0000     YY      -7.2039
        XZ       0.0000     YZ       0.0000     ZZ      -5.9898
    Octapole Moments (Debye-Ang^2)
       XXX       0.0000    XXY       0.0000    XYY       0.0000
       YYY       0.0000    XXZ      -1.2128    XYZ       0.0000
       YYZ      -0.3236    XZZ       0.0000    YZZ       0.0000
       ZZZ      -1.2171
    Hexadecapole Moments (Debye-Ang^3)
      XXXX      -6.0609   XXXY       0.0000   XXYY      -2.1173
      XYYY       0.0000   YYYY      -5.2143   XXXZ       0.0000
      XXYZ       0.0000   XYYZ       0.0000   YYYZ       0.0000
      XXZZ      -1.7416   XYZZ       0.0000   YYZZ      -1.9680
      XZZZ       0.0000   YZZZ       0.0000   ZZZZ      -6.2945
 -----------------------------------------------------------------
Archival summary:
1\1\node08\SP\ProcedureUnspecified\6-31G*\O1H2\rkanters\11Mar2009\0\\#,ProcedureUnspecified,6-31G*,\\0,1\O\H,1,0.968704\H,1,0.968704,2,103.652\\\@

 Total job time:  5.93s(wall), 6.33s(cpu) 
 Wed Mar 11 18:33:15 2009

======= MOLDEN-FORMATTED INPUT FILE FOLLOWS =======
[Molden Format]
[Atoms] (Angs)
  O      1    8     -0.00000000      0.00000000      0.11974134
  H      2    1     -0.76153643     -0.00000000     -0.47896536
  H      3    1      0.76153643     -0.00000000     -0.47896536
[GTO]
1    0
S    6    1.000000
   5.48467170E+03    1.83110000E-03 
   8.25234950E+02    1.39501000E-02 
   1.88046960E+02    6.84451000E-02 
   5.29645000E+01    2.32714300E-01 
   1.68975700E+01    4.70193000E-01 
   5.79963530E+00    3.58520900E-01 
SP   3    1.000000
   1.55396160E+01   -1.10777500E-01   7.08743000E-02 
   3.59993360E+00   -1.48026300E-01   3.39752800E-01 
   1.01376180E+00    1.13076700E+00   7.27158600E-01 
SP   1    1.000000
   2.70005800E-01    1.00000000E+00   1.00000000E+00 
D    1    1.000000
   8.00000000E-01    1.00000000E+00 

2    0
S    3    1.000000
   1.87311370E+01    3.34946000E-02 
   2.82539370E+00    2.34726950E-01 
   6.40121700E-01    8.13757330E-01 
S    1    1.000000
   1.61277800E-01    1.00000000E+00 

3    0
S    3    1.000000
   1.87311370E+01    3.34946000E-02 
   2.82539370E+00    2.34726950E-01 
   6.40121700E-01    8.13757330E-01 
S    1    1.000000
   1.61277800E-01    1.00000000E+00 

[MO]
Sym=X
Ene= -19.138175
Spin=Alpha
Occup=1
     1    9.928599577735e-01
     2    2.622441704620e-02
     3    3.731695334686e-10
     4    3.724058880784e-09
     5   -1.101256304164e-03
     6    1.010940461113e-02
     7    1.726404054436e-10
     8   -1.576898672390e-09
     9   -1.552285105913e-06
    10   -7.767142280778e-03
    11   -7.724189783000e-03
    12   -7.746265641203e-03
    13    1.338992297474e-10
    14   -6.976740550568e-10
    15    1.765934253824e-11
    16    3.700423505562e-04
    17   -1.033376876285e-03
    18    3.700416025173e-04
    19   -1.033376888558e-03
Sym=X
Ene= -0.997889
Spin=Alpha
Occup=1
     1   -2.095011486220e-01
     2    4.692116135835e-01
     3   -1.766452503126e-07
     4   -4.654117200923e-08
     5   -1.276936088097e-01
     6    4.395206051524e-01
     7    2.368787002660e-07
     8   -5.411438394356e-08
     9   -6.065403841154e-02
    10    1.878075109907e-02
    11   -1.093535335107e-02
    12    1.606979759429e-02
    13    2.519476887813e-08
    14   -9.016600451646e-08
    15    5.081567843615e-09
    16    1.391441808792e-01
    17    6.450805862149e-03
    18    1.391432978822e-01
    19    6.449727101063e-03
Sym=X
Ene= -0.517142
Spin=Alpha
Occup=1
     1   -5.556966265821e-07
     2    7.404546913323e-07
     3    5.174401360892e-01
     4    1.296905162642e-07
     5    6.936914895214e-07
     6    3.892797660360e-06
     7    2.697583692326e-01
     8    2.224055299256e-08
     9   -2.209439948636e-07
    10    1.987491122721e-08
    11   -2.402904640160e-07
    12   -1.521671082333e-07
    13   -9.744287924458e-10
    14   -4.127108784583e-02
    15   -1.483070851818e-08
    16   -2.374396849155e-01
    17   -1.419555902404e-01
    18    2.374375842228e-01
    19    1.419523935129e-01
Sym=X
Ene= -0.372216
Spin=Alpha
Occup=1
     1   -8.809859938641e-02
     2    1.772600189407e-01
     3   -1.813689454839e-06
     4   -7.851984904429e-08
     5    5.518135524629e-01
     6    4.104343462170e-01
     7   -1.727234751163e-06
     8   -1.633589014711e-08
     9    3.721444906831e-01
    10    8.847186272822e-04
    11   -2.644546815302e-04
    12   -5.242228477921e-02
    13   -2.820206801790e-09
    14    2.210365652728e-07
    15   -2.809842177179e-08
    16   -1.437329017033e-01
    17   -1.142801045882e-01
    18   -1.437331117933e-01
    19   -1.142782092287e-01
Sym=X
Ene= -0.291189
Spin=Alpha
Occup=1
     1   -4.875107486972e-08
     2    1.878363797125e-08
     3   -2.545974806894e-09
     4    6.445756605229e-01
     5    1.484786822564e-08
     6    4.129844691151e-07
     7   -1.698018054304e-08
     8    5.060500859896e-01
     9   -7.819897219858e-08
    10    8.750058350863e-09
    11   -9.756256762743e-08
    12   -3.465680909062e-08
    13   -1.707447677456e-08
    14   -2.372111559487e-08
    15   -3.543912340488e-02
    16    6.040290700935e-08
    17   -1.278376022749e-07
    18   -1.197670794429e-07
    19   -2.076704264826e-07
Sym=X
Ene= 0.062599
Spin=Alpha
Occup=0
     1    1.006435064783e-01
     2   -1.192938833512e-01
     3    7.073864876209e-06
     4    2.158160701354e-07
     5    2.806709014991e-01
     6   -1.257838294490e+00
     7    1.242182518424e-05
     8   -8.694746229287e-08
     9    4.774696478281e-01
    10    4.509162710089e-02
    11    5.804475507069e-02
    12    2.731420436476e-02
    13   -2.824229981546e-08
    14   -6.970799963715e-07
    15   -1.474411618535e-08
    16    9.627791809091e-02
    17    9.690835124553e-01
    18    9.627361113378e-02
    19    9.690464417366e-01
Sym=X
Ene= 0.148127
Spin=Alpha
Occup=0
     1    1.459678878074e-06
     2   -2.336336269282e-06
     3   -4.134565960531e-01
     4    1.351649363314e-08
     5    3.282415662276e-06
     6   -1.765963155587e-05
     7   -7.588112682776e-01
     8    5.970460780039e-08
     9    5.734890122511e-06
    10    8.116934651706e-07
    11    6.414992934009e-07
    12    5.364071947317e-07
    13   -2.562947923255e-08
    14    1.843699202506e-02
    15    1.804168025833e-08
    16   -1.073483274719e-01
    17   -1.277782268615e+00
    18    1.073484430383e-01
    19    1.277812310244e+00
Sym=X
Ene= 0.772466
Spin=Alpha
Occup=0
     1    1.438082457422e-07
     2   -6.535842397987e-07
     3    1.722160987489e-01
     4   -5.697075785756e-07
     5    2.121419597729e-06
     6    1.131362365125e-06
     7    4.305333555611e-01
     8    5.783799622724e-07
     9   -2.924713491115e-07
    10    4.847536456826e-07
    11   -5.431464447231e-07
    12   -9.438756611024e-08
    13   -1.028424636335e-08
    14    1.960247090609e-01
    15   -2.815475791956e-08
    16    8.402200811873e-01
    17   -6.552838638117e-01
    18   -8.402128909961e-01
    19    6.552779308728e-01
Sym=X
Ene= 0.860943
Spin=Alpha
Occup=0
     1    3.777392912927e-02
     2   -1.353576658885e-01
     3   -1.273268348558e-06
     4    9.447949657419e-07
     5    7.079730073422e-01
     6    1.350176772671e-01
     7   -1.632874603030e-06
     8   -1.051654183733e-06
     9   -3.834013389469e-01
    10    1.535550034939e-01
    11   -1.192172387893e-01
    12    1.180778063304e-02
    13   -1.280480426205e-08
    14   -1.147014099732e-06
    15   -1.576977995657e-08
    16    7.116523072171e-01
    17   -5.519588380380e-01
    18    7.116590988282e-01
    19   -5.519619721579e-01
Sym=X
Ene= 0.890781
Spin=Alpha
Occup=0
     1   -4.112102913870e-08
     2    5.494974077617e-06
     3    1.148309328935e-07
     4   -9.594362511175e-01
     5    4.917499415686e-06
     6   -9.280071350579e-06
     7   -4.895932188949e-07
     8    1.038621717630e+00
     9   -6.675843073220e-06
    10    1.106515192230e-06
    11    2.211969007670e-06
    12    1.951775983484e-06
    13    7.070673888545e-09
    14   -1.496449825396e-07
    15   -1.639957413602e-02
    16   -3.241996691008e-06
    17    2.316046866804e-06
    18   -2.318125539575e-06
    19    1.849206221768e-06

======= END OF MOLDEN-FORMATTED INPUT FILE =======


        *************************************************************
        *                                                           *
        *  Thank you very much for using Q-Chem.  Have a nice day.  *
        *                                                           *
        *************************************************************


0 sent ACK to 0 
now end server 0 ... 
