Process 0 of 1 is on node08 - thread support 1
initial socket setup ...start
initial socket setup ...done 
now start server 0 ... 
                  Welcome to Q-Chem
     A Quantum Leap Into The Future Of Chemistry

 Y. Shao, L. Fusti-Molnar, Y. Jung, J. Kussmann, C. Ochsenfeld,
 S. T. Brown, A. T. B. Gilbert, L. V. Slipchenko,S. V. Levchenko,
 D. P. O'Neill, R. A. DiStasio Jr., R. C. Lochan, T. Wang,
 G. J. O. Beran, N. A. Besley, J. M. Herbert, C. Y. Lin,
 T. Van Voorhis, S. H. Chien, A. Sodt, R. P. Steele, 
 V. A. Rassolov, P. E. Maslen, P. P. Korambath, R. D. Adamson,
 B. Austin, J. Baker, E. F. C. Byrd, H. Dachsel, R. J. Doerksen,
 A. Dreuw, B. D. Dunietz, A. D. Dutoi, T. R. Furlani,
 S. R. Gwaltney, A. Heyden, S. Hirata, C.-P. Hsu, G. Kedziora,
 R. Z. Khaliullin, P. Klunzinger, A. M. Lee, M. S. Lee, W. Liang,
 I. Lotan, N. Nair, B. Peters, E. I. Proynov, P. A. Pieniazek, 
 Y. M. Rhee, J. Ritchie, E. Rosta, C. D. Sherrill, 
 A. C. Simmonett, J. E. Subotnik, H. L. Woodcock III,
 W. Zhang, A. T. Bell, A. K. Chakraborty, D. M. Chipman,
 F. J. Keil, A. Warshel, W. J. Hehre, H. F. Schaefer III,
 J. Kong, A. I. Krylov, P. M. W. Gill, M. Head-Gordon,
 Q-Chem, Version 3.1, Q-Chem, Inc., Pittsburgh, PA (2007).

 Additional authors for Version 3.1: 
 Z. Gan, Y. Zhao, N. E. Schultz, D. Truhlar, E. Epifanovsky and M. Oana.

 Additional authors for Version 3.2: 
 R. Baer, B. R. Brooks, D. Casanova, J.-D. Chai, C.-L. Cheng, 
 C. Cramer, D. Crittenden, A. Ghysels, G. Hawkins, E. G. Hohenstein, 
 C. Kelley, W. Kurlancheek, D. Liotard, E. Livshits, P. Manohar, 
 A. Marenich, D. Neuhauser, R. Olson, M. A. Rohrdanz, K. S. Thanthiriwatte, 
 A. J. W. Thom, V. Vanovschi, C. F. Williams, Q. Wu and Z.-Q. You. 


 Intel X86 EM64T Linux Version

 Q-chem begins on Wed Mar 11 18:32:59 2009  

 Parallel job on  1  processors
Processing $rem in /usr/local/qchem3201/config/preferences.

theFileMan(): MAXOPENFILES=974 MAX_SUB_FILE_NUM=16
Maximum size of a physical file is 2.0 GB, maximum size of a tmp-file is 32.0 GB


--------------------------------------------------------------
User input:
--------------------------------------------------------------
$comment
 optimized water
$end

$molecule
0 1
 O 
 H  1 0.968704
 H  1 0.968704 2 103.652373
$end

$rem
  jobtype             sp
  exchange            b3lyp
  basis               6-31G*
  purecart            111
  print_general_basis true
  print_orbitals      true
  molden_format       true   so I can verify the order of the orbitals
$end


--------------------------------------------------------------
 Writing REM_CC_EA            0
 ----------------------------------------------------
       Standard Nuclear Orientation (Angstroms)
    I     Atom         X            Y            Z
 ----------------------------------------------------
    1      O       0.000000     0.000000     0.119741
    2      H      -0.761536     0.000000    -0.478965
    3      H       0.761536     0.000000    -0.478965
 ----------------------------------------------------
 Molecular Point Group                 C2v   NOp =  4
 Largest Abelian Subgroup              C2v   NOp =  4
 Nuclear Repulsion Energy =     9.0878146316 hartrees
 There are        5 alpha and        5 beta electrons

 Q-Chem warning in module /home/distrib/qctk32_0126/qchem/forms1/BasisType.C, line 847:

 You are not using the predefined 5D/6D in this basis set.

 Requested basis set is 6-31G(d)
Basis set in general basis input format:
-----------------------------------------------------------------------
$basis
O    0
S    6    1.000000
   5.48467170E+03    1.83110000E-03 
   8.25234950E+02    1.39501000E-02 
   1.88046960E+02    6.84451000E-02 
   5.29645000E+01    2.32714300E-01 
   1.68975700E+01    4.70193000E-01 
   5.79963530E+00    3.58520900E-01 
SP   3    1.000000
   1.55396160E+01   -1.10777500E-01   7.08743000E-02 
   3.59993360E+00   -1.48026300E-01   3.39752800E-01 
   1.01376180E+00    1.13076700E+00   7.27158600E-01 
SP   1    1.000000
   2.70005800E-01    1.00000000E+00   1.00000000E+00 
D    1    1.000000
   8.00000000E-01    1.00000000E+00 
****
H    0
S    3    1.000000
   1.87311370E+01    3.34946000E-02 
   2.82539370E+00    2.34726950E-01 
   6.40121700E-01    8.13757330E-01 
S    1    1.000000
   1.61277800E-01    1.00000000E+00 
****
H    0
S    3    1.000000
   1.87311370E+01    3.34946000E-02 
   2.82539370E+00    2.34726950E-01 
   6.40121700E-01    8.13757330E-01 
S    1    1.000000
   1.61277800E-01    1.00000000E+00 
****
$end
-----------------------------------------------------------------------
 There are 8 shells and 18 basis functions

Total QAlloc Memory Limit   2000 MB
Mega-Array Size        61 MB
MEM_STATIC part        62 MB

                       Distance Matrix (Angstroms)
             O (  1)   H (  2)
   H (  2)  0.968704
   H (  3)  0.968704  1.523073
 
 A cutoff of  1.0D-08 yielded     36 shell pairs
 There are    193 function pairs (   217 Cartesian)
Evaluating contribution to one-electron hamiltonian from nuclear
 Smallest overlap matrix eigenvalue = 6.41E-02
 Multipole matrices computed through 2nd order

  Scale SEOQF with 1.000000e+00/1.000000e+00/1.000000e+00

 Standard Electronic Orientation quadrupole field applied
 Nucleus-field energy     =    -0.0000000002 hartrees
 Guess from superposition of atomic densities
 Warning:  Energy on first SCF cycle will be non-variational
 A restricted hybrid HF-DFT SCF calculation will be
 performed using Pulay DIIS extrapolation
 Exchange:     0.2000 Hartree-Fock + 0.0800 Slater + 0.7200 Becke
 Correlation:  0.8100 LYP + 0.1900 VWN1RPA
 Using SG-1 standard quadrature grid
 SCF converges when DIIS error is below 1.0E-05
 ---------------------------------------
  Cycle       Energy         DIIS Error
 ---------------------------------------
    1     -76.3889862143      1.71E-01
    2     -76.3383891894      4.73E-02
    3     -76.3038891227      5.89E-02
    4     -76.4069874405      1.27E-03
    5     -76.4070214034      1.90E-04
    6     -76.4070081545      2.20E-05
    7     -76.4070062322      1.02E-06 Convergence criterion met
 ---------------------------------------
 SCF time:  CPU 6.32 s  wall 6.07 s
 Analysis of SCF Wavefunction
 
 --------------------------------------------------------------
             Orbital Energies (a.u.) and Symmetries
 --------------------------------------------------------------
 
 Alpha MOs, Restricted
 -- Occupied --                  
-19.130  -0.997  -0.516  -0.371  -0.290
  1 A1    2 A1    1 B1    3 A1    1 B2                                         
 -- Virtual --                   
  0.065   0.149   0.773   0.862   0.892   0.935   1.067   1.384
  4 A1    2 B1    3 B1    5 A1    2 B2    6 A1    4 B1    7 A1                 
  1.730   1.747   1.781   2.288   2.578
  8 A1    1 A2    3 B2    9 A1    5 B1                                         
 
 Beta MOs, Restricted
 -- Occupied --                  
-19.130  -0.997  -0.516  -0.371  -0.290
  1 A1    2 A1    1 B1    3 A1    1 B2                                         
 -- Virtual --                   
  0.065   0.149   0.773   0.862   0.892   0.935   1.067   1.384
  4 A1    2 B1    3 B1    5 A1    2 B2    6 A1    4 B1    7 A1                 
  1.730   1.747   1.781   2.288   2.578
  8 A1    1 A2    3 B2    9 A1    5 B1                                         
 --------------------------------------------------------------
 

                        RESTRICTED (RHF) MOLECULAR ORBITAL COEFFICIENTS
                         1         2         3         4         5         6
 eigenvalues:        -19.130    -0.997    -0.516    -0.371    -0.290     0.065
   1  O     s        0.99505  -0.21173   0.00000  -0.08338   0.00000   0.08960
   2  O     s        0.02790   0.46512   0.00000   0.18751   0.00000  -0.15229
   3  O     px       0.00000   0.00000   0.51708   0.00000   0.00000   0.00001
   4  O     py       0.00000   0.00000   0.00000   0.00000   0.64424   0.00000
   5  O     pz      -0.00169  -0.12726   0.00000   0.55128   0.00000   0.28063
   6  O     s       -0.01316   0.46728   0.00000   0.34668   0.00000  -1.09467
   7  O     px       0.00000   0.00000   0.26985   0.00000   0.00000   0.00001
   8  O     py       0.00000   0.00000   0.00000   0.00000   0.50641   0.00000
   9  O     pz       0.00261  -0.06385   0.00000   0.37987   0.00000   0.46045
  10  O     d 1      0.00000   0.00000   0.00000   0.00000   0.00000   0.00000
  11  O     d 2      0.00000   0.00000   0.00000   0.00000  -0.03550   0.00000
  12  O     d 3     -0.00004   0.00813   0.00000  -0.03535   0.00000  -0.01590
  13  O     d 4      0.00000   0.00000  -0.04131   0.00000   0.00000   0.00000
  14  O     d 5     -0.00027   0.01732   0.00000   0.00046   0.00000  -0.00725
  15  H 1   s        0.00029   0.13911  -0.23753  -0.14352   0.00000   0.09663
  16  H 1   s        0.00298   0.00119  -0.14211  -0.10113   0.00000   0.93864
  17  H 2   s        0.00029   0.13911   0.23753  -0.14352   0.00000   0.09663
  18  H 2   s        0.00298   0.00119   0.14210  -0.10113   0.00000   0.93860
                         7         8         9        10
 eigenvalues:          0.149     0.773     0.862     0.892
   1  O     s        0.00000   0.00000   0.03667   0.00000
   2  O     s        0.00000   0.00000  -0.17380   0.00000
   3  O     px      -0.41343   0.17224   0.00000   0.00000
   4  O     py       0.00000   0.00000   0.00000  -0.95966
   5  O     pz       0.00000   0.00000   0.68892   0.00000
   6  O     s       -0.00002   0.00000   0.21500   0.00000
   7  O     px      -0.75907   0.43095   0.00000   0.00000
   8  O     py       0.00000   0.00000   0.00000   1.03844
   9  O     pz       0.00001   0.00000  -0.35837   0.00000
  10  O     d 1      0.00000   0.00000   0.00000   0.00000
  11  O     d 2      0.00000   0.00000   0.00000  -0.01647
  12  O     d 3      0.00000   0.00000  -0.00428   0.00000
  13  O     d 4      0.01849   0.19590   0.00000   0.00000
  14  O     d 5      0.00000   0.00000   0.16023   0.00000
  15  H 1   s       -0.10710   0.84030   0.72704   0.00000
  16  H 1   s       -1.27802  -0.65494  -0.57058   0.00000
  17  H 2   s        0.10710  -0.84030   0.72704   0.00000
  18  H 2   s        1.27805   0.65494  -0.57058   0.00000
 
          Ground-State Mulliken Net Atomic Charges

     Atom                 Charge (a.u.)
  ----------------------------------------
      1 O                    -0.793848
      2 H                     0.396921
      3 H                     0.396927
  ----------------------------------------
  Sum of atomic charges =     0.000000

 -----------------------------------------------------------------
                    Cartesian Multipole Moments
 -----------------------------------------------------------------
    Charge (ESU x 10^10)
                 0.0000
    Dipole Moment (Debye)
         X       0.0000      Y       0.0000      Z      -2.0905
       Tot       2.0905
    Quadrupole Moments (Debye-Ang)
        XX      -4.2611     XY       0.0000     YY      -7.2002
        XZ       0.0000     YZ       0.0000     ZZ      -5.9604
    Octapole Moments (Debye-Ang^2)
       XXX       0.0000    XXY       0.0000    XYY       0.0000
       YYY       0.0000    XXZ      -1.2303    XYZ       0.0000
       YYZ      -0.3187    XZZ       0.0000    YZZ       0.0000
       ZZZ      -1.2231
    Hexadecapole Moments (Debye-Ang^3)
      XXXX      -5.9697   XXXY       0.0000   XXYY      -2.1044
      XYYY       0.0000   YYYY      -5.2040   XXXZ       0.0000
      XXYZ       0.0000   XYYZ       0.0000   YYYZ       0.0000
      XXZZ      -1.7031   XYZZ       0.0000   YYZZ      -1.9504
      XZZZ       0.0000   YZZZ       0.0000   ZZZZ      -6.1943
 -----------------------------------------------------------------
Archival summary:
1\1\node08\SP\ProcedureUnspecified\6-31G*\O1H2\rkanters\11Mar2009\0\\#,ProcedureUnspecified,6-31G*,\\0,1\O\H,1,0.968704\H,1,0.968704,2,103.652\\\@

 Total job time:  6.25s(wall), 6.41s(cpu) 
 Wed Mar 11 18:33:05 2009

======= MOLDEN-FORMATTED INPUT FILE FOLLOWS =======
[Molden Format]
[Atoms] (Angs)
  O      1    8     -0.00000000      0.00000000      0.11974134
  H      2    1     -0.76153643     -0.00000000     -0.47896536
  H      3    1      0.76153643     -0.00000000     -0.47896536
[GTO]
1    0
S    6    1.000000
   5.48467170E+03    1.83110000E-03 
   8.25234950E+02    1.39501000E-02 
   1.88046960E+02    6.84451000E-02 
   5.29645000E+01    2.32714300E-01 
   1.68975700E+01    4.70193000E-01 
   5.79963530E+00    3.58520900E-01 
SP   3    1.000000
   1.55396160E+01   -1.10777500E-01   7.08743000E-02 
   3.59993360E+00   -1.48026300E-01   3.39752800E-01 
   1.01376180E+00    1.13076700E+00   7.27158600E-01 
SP   1    1.000000
   2.70005800E-01    1.00000000E+00   1.00000000E+00 
D    1    1.000000
   8.00000000E-01    1.00000000E+00 

2    0
S    3    1.000000
   1.87311370E+01    3.34946000E-02 
   2.82539370E+00    2.34726950E-01 
   6.40121700E-01    8.13757330E-01 
S    1    1.000000
   1.61277800E-01    1.00000000E+00 

3    0
S    3    1.000000
   1.87311370E+01    3.34946000E-02 
   2.82539370E+00    2.34726950E-01 
   6.40121700E-01    8.13757330E-01 
S    1    1.000000
   1.61277800E-01    1.00000000E+00 

[MO]
Sym=X
Ene= -19.129786
Spin=Alpha
Occup=1
     1    9.950488960893e-01
     2    2.789581221500e-02
     3    9.677487992823e-10
     4    4.316692370087e-09
     5   -1.689258564980e-03
     6   -1.316264677346e-02
     7   -3.706662338177e-10
     8   -1.910560536520e-09
     9    2.611110266696e-03
    10   -3.605762049913e-05
    11   -4.678993934925e-10
    12    1.873166278138e-10
    13   -2.716544228472e-04
    14   -1.012758227088e-10
    15    2.923029365618e-04
    16    2.983441506685e-03
    17    2.923022566148e-04
    18    2.983442056457e-03
Sym=X
Ene= -0.996912
Spin=Alpha
Occup=1
     1   -2.117267735370e-01
     2    4.651204376453e-01
     3   -1.680504356678e-07
     4   -1.962594714442e-07
     5   -1.272578990134e-01
     6    4.672817482953e-01
     7    2.464458517260e-07
     8   -1.495524430880e-07
     9   -6.385462052143e-02
    10    8.125377819187e-03
    11   -5.803735660809e-08
    12    5.658868525314e-08
    13    1.732018916086e-02
    14    1.238949250469e-08
    15    1.391081549674e-01
    16    1.194691452625e-03
    17    1.391076022390e-01
    18    1.193616766903e-03
Sym=X
Ene= -0.516399
Spin=Alpha
Occup=1
     1   -4.052436428023e-07
     2    4.920908071339e-07
     3    5.170807325248e-01
     4    1.425116284551e-09
     5    5.499252176445e-07
     6    3.060293438023e-06
     7    2.698489639832e-01
     8   -3.430718140109e-08
     9   -2.868163696476e-07
    10   -1.529181724110e-08
    11   -4.130997555130e-02
    12   -3.317756579914e-09
    13    1.377194474633e-07
    14   -6.423153127093e-08
    15   -2.375292315075e-01
    16   -1.421059254602e-01
    17    2.375276582094e-01
    18    1.421030853113e-01
Sym=X
Ene= -0.370927
Spin=Alpha
Occup=1
     1   -8.337567255789e-02
     2    1.875057027433e-01
     3   -1.407584542291e-06
     4    1.838806475553e-07
     5    5.512793542680e-01
     6    3.466788705316e-01
     7   -1.453678087966e-06
     8    2.667112608177e-07
     9    3.798660890007e-01
    10   -3.534778688127e-02
    11    1.792243034362e-07
    12   -6.153155319889e-08
    13    4.643876630275e-04
    14    2.160643076659e-09
    15   -1.435207053935e-01
    16   -1.011277229066e-01
    17   -1.435210552203e-01
    18   -1.011256056499e-01
Sym=X
Ene= -0.290262
Spin=Alpha
Occup=1
     1   -3.221003662296e-08
     2    1.476146820556e-08
     3    3.763700580758e-08
     4    6.442427254213e-01
     5   -2.627475096742e-07
     6    1.218132786398e-07
     7    1.657500807481e-07
     8    5.064079835093e-01
     9   -1.710319075852e-07
    10    5.494182618057e-08
    11   -3.537980336668e-08
    12   -3.550194702709e-02
    13    8.609916048873e-08
    14   -2.611267051948e-08
    15    1.771421118170e-07
    16    9.922531640202e-08
    17    5.885764580463e-08
    18   -1.614593625792e-07
Sym=X
Ene= 0.065216
Spin=Alpha
Occup=0
     1    8.959985344937e-02
     2   -1.522857375783e-01
     3    7.012873290246e-06
     4    2.483705982815e-07
     5    2.806336556723e-01
     6   -1.094672220949e+00
     7    1.253348237873e-05
     8   -2.293740112667e-07
     9    4.604471896523e-01
    10   -1.589744069118e-02
    11   -7.004190506832e-07
    12   -1.940526127369e-08
    13   -7.252793811145e-03
    14   -1.806423217029e-08
    15    9.663266115272e-02
    16    9.386379545579e-01
    17    9.662862800198e-02
    18    9.385997726629e-01
Sym=X
Ene= 0.148802
Spin=Alpha
Occup=0
     1    1.337573463486e-06
     2   -2.984859713243e-06
     3   -4.134282696247e-01
     4    1.838018400078e-07
     5    3.457230270808e-06
     6   -1.541236841301e-05
     7   -7.590715596849e-01
     8   -7.224325654463e-08
     9    5.740214681860e-06
    10   -1.358816780395e-07
    11    1.849202290448e-02
    12    1.000014007110e-08
    13    9.598949061431e-08
    14    5.765855170920e-09
    15   -1.071023646102e-01
    16   -1.278017815299e+00
    17    1.071029435263e-01
    18    1.278047165341e+00
Sym=X
Ene= 0.772972
Spin=Alpha
Occup=0
     1   -1.360230660725e-08
     2    2.503754514896e-07
     3    1.722420627742e-01
     4   -4.693227772888e-07
     5   -6.956234779917e-07
     6   -2.153133402683e-07
     7    4.309538398600e-01
     8    4.682773731909e-07
     9    8.757362024714e-07
    10   -1.005771861534e-08
    11    1.959015547912e-01
    12   -4.194114487877e-08
    13    2.995210248184e-08
    14    9.731170767476e-09
    15    8.403008287670e-01
    16   -6.549448965132e-01
    17   -8.403003319943e-01
    18    6.549444889362e-01
Sym=X
Ene= 0.861689
Spin=Alpha
Occup=0
     1    3.667226708236e-02
     2   -1.737992033528e-01
     3   -1.096382592592e-06
     4    2.249183162224e-06
     5    6.889163971361e-01
     6    2.149988145577e-01
     7    1.018506094186e-06
     8   -2.503072978443e-06
     9   -3.583711797200e-01
    10   -4.280739846117e-03
    11   -7.380525409925e-08
    12   -3.359946019641e-08
    13    1.602268379786e-01
    14   -7.366413374699e-08
    15    7.270430636172e-01
    16   -5.705829069551e-01
    17    7.270428790949e-01
    18   -5.705819170496e-01
Sym=X
Ene= 0.891704
Spin=Alpha
Occup=0
     1    1.119953310414e-07
     2   -4.179347454341e-07
     3   -2.780807231212e-07
     4   -9.596601355102e-01
     5    1.734013646277e-06
     6    2.002169812711e-07
     7    1.182153819790e-08
     8    1.038443490405e+00
     9   -8.642347628562e-07
    10   -3.701346233716e-08
    11   -1.535686633567e-07
    12   -1.646695383196e-02
    13    3.330529895915e-07
    14    5.458733614827e-08
    15    1.371548151213e-06
    16   -8.304580685406e-07
    17    2.103044838831e-06
    18   -1.414346343090e-06
[5D]

======= END OF MOLDEN-FORMATTED INPUT FILE =======


        *************************************************************
        *                                                           *
        *  Thank you very much for using Q-Chem.  Have a nice day.  *
        *                                                           *
        *************************************************************


0 sent ACK to 0 
now end server 0 ... 
