Process 0 of 1 is on alphawulf - thread support 1
initial socket setup ...start
initial socket setup ...done 
now start server 0 ... 
                  Welcome to Q-Chem
     A Quantum Leap Into The Future Of Chemistry

 Y. Shao, L. Fusti-Molnar, Y. Jung, J. Kussmann, C. Ochsenfeld,
 S. T. Brown, A. T. B. Gilbert, L. V. Slipchenko,S. V. Levchenko,
 D. P. O'Neill, R. A. DiStasio Jr., R. C. Lochan, T. Wang,
 G. J. O. Beran, N. A. Besley, J. M. Herbert, C. Y. Lin,
 T. Van Voorhis, S. H. Chien, A. Sodt, R. P. Steele, 
 V. A. Rassolov, P. E. Maslen, P. P. Korambath, R. D. Adamson,
 B. Austin, J. Baker, E. F. C. Byrd, H. Dachsel, R. J. Doerksen,
 A. Dreuw, B. D. Dunietz, A. D. Dutoi, T. R. Furlani,
 S. R. Gwaltney, A. Heyden, S. Hirata, C.-P. Hsu, G. Kedziora,
 R. Z. Khaliullin, P. Klunzinger, A. M. Lee, M. S. Lee, W. Liang,
 I. Lotan, N. Nair, B. Peters, E. I. Proynov, P. A. Pieniazek, 
 Y. M. Rhee, J. Ritchie, E. Rosta, C. D. Sherrill, 
 A. C. Simmonett, J. E. Subotnik, H. L. Woodcock III,
 W. Zhang, A. T. Bell, A. K. Chakraborty, D. M. Chipman,
 F. J. Keil, A. Warshel, W. J. Hehre, H. F. Schaefer III,
 J. Kong, A. I. Krylov, P. M. W. Gill, M. Head-Gordon,
 Q-Chem, Version 3.1, Q-Chem, Inc., Pittsburgh, PA (2007).

 Additional authors for Version 3.1: 
 Z. Gan, Y. Zhao, N. E. Schultz, D. Truhlar, E. Epifanovsky and M. Oana.

 Additional authors for Version 3.2: 
 R. Baer, B. R. Brooks, D. Casanova, J.-D. Chai, C.-L. Cheng, 
 C. Cramer, D. Crittenden, A. Ghysels, G. Hawkins, E. G. Hohenstein, 
 C. Kelley, W. Kurlancheek, D. Liotard, E. Livshits, P. Manohar, 
 A. Marenich, D. Neuhauser, R. Olson, M. A. Rohrdanz, K. S. Thanthiriwatte, 
 A. J. W. Thom, V. Vanovschi, C. F. Williams, Q. Wu and Z.-Q. You. 


 Intel X86 EM64T Linux Version

 Q-chem begins on Fri Jun 19 11:43:00 2009  

 Parallel job on  1  processors
Processing $rem in /usr/local/qchem3201/config/preferences.

theFileMan(): MAXOPENFILES=974 MAX_SUB_FILE_NUM=16
Maximum size of a physical file is 2.0 GB, maximum size of a tmp-file is 32.0 GB


--------------------------------------------------------------
User input:
--------------------------------------------------------------
$comment
water  B3LYP/6-31G*
$end

$molecule
0 1
O
H1 O OH
H2 O OH H1 HOH

OH  = 1.0
HOH = 104.0
$end

$rem
jobtype             opt
EXCHANGE            B3LYP
CORRELATION         None    Hybrid functional, correlation incorporated
BASIS               6-31G*  Basis Set
print_orbitals      true
print_general_basis true
$end

--------------------------------------------------------------
 Writing REM_CC_EA            0
 ----------------------------------------------------
       Standard Nuclear Orientation (Angstroms)
    I     Atom         X            Y            Z
 ----------------------------------------------------
    1      O       0.000000     0.000000     0.123132
    2      H      -0.788011     0.000000    -0.492529
    3      H       0.788011     0.000000    -0.492529
 ----------------------------------------------------
 Molecular Point Group                 C2v   NOp =  4
 Largest Abelian Subgroup              C2v   NOp =  4
 Nuclear Repulsion Energy =     8.8026031326 hartrees
 There are        5 alpha and        5 beta electrons
 Requested basis set is 6-31G(d)
Basis set in general basis input format:
-----------------------------------------------------------------------
$basis
O    0
S    6    1.000000
   5.48467170E+03    1.83110000E-03 
   8.25234950E+02    1.39501000E-02 
   1.88046960E+02    6.84451000E-02 
   5.29645000E+01    2.32714300E-01 
   1.68975700E+01    4.70193000E-01 
   5.79963530E+00    3.58520900E-01 
SP   3    1.000000
   1.55396160E+01   -1.10777500E-01   7.08743000E-02 
   3.59993360E+00   -1.48026300E-01   3.39752800E-01 
   1.01376180E+00    1.13076700E+00   7.27158600E-01 
SP   1    1.000000
   2.70005800E-01    1.00000000E+00   1.00000000E+00 
D    1    1.000000
   8.00000000E-01    1.00000000E+00 
****
H    0
S    3    1.000000
   1.87311370E+01    3.34946000E-02 
   2.82539370E+00    2.34726950E-01 
   6.40121700E-01    8.13757330E-01 
S    1    1.000000
   1.61277800E-01    1.00000000E+00 
****
H    0
S    3    1.000000
   1.87311370E+01    3.34946000E-02 
   2.82539370E+00    2.34726950E-01 
   6.40121700E-01    8.13757330E-01 
S    1    1.000000
   1.61277800E-01    1.00000000E+00 
****
$end
-----------------------------------------------------------------------
 There are 8 shells and 19 basis functions

Total QAlloc Memory Limit   2000 MB
Mega-Array Size        61 MB
MEM_STATIC part        62 MB
 A cutoff of  1.0D-11 yielded     36 shell pairs
 There are    217 function pairs
Evaluating contribution to one-electron hamiltonian from nuclear
 Smallest overlap matrix eigenvalue = 2.39E-02
 Multipole matrices computed through 2nd order

  Scale SEOQF with 1.000000e+00/1.000000e+00/1.000000e+00

 Standard Electronic Orientation quadrupole field applied
 Nucleus-field energy     =    -0.0000000002 hartrees
 Guess from superposition of atomic densities
 Warning:  Energy on first SCF cycle will be non-variational
 A restricted hybrid HF-DFT SCF calculation will be
 performed using Pulay DIIS extrapolation
 Exchange:     0.2000 Hartree-Fock + 0.0800 Slater + 0.7200 Becke
 Correlation:  0.8100 LYP + 0.1900 VWN1RPA
 Using SG-1 standard quadrature grid
 SCF converges when DIIS error is below 1.0E-08
 ---------------------------------------
  Cycle       Energy         DIIS Error
 ---------------------------------------
    1     -76.3538465470      1.53E-01
    2     -76.3398005530      4.41E-02
    3     -76.2991818438      5.73E-02
    4     -76.4072120961      1.28E-03
    5     -76.4072679837      2.28E-04
    6     -76.4072696900      2.75E-05
    7     -76.4072696786      5.90E-07
    8     -76.4072696742      4.19E-08
    9     -76.4072696738      5.40E-09 Convergence criterion met
 ---------------------------------------
 SCF time:  CPU 0.93 s  wall 1.70 s
 Analysis of SCF Wavefunction
 
 --------------------------------------------------------------
             Orbital Energies (a.u.) and Symmetries
 --------------------------------------------------------------
 
 Alpha MOs, Restricted
 -- Occupied --                  
-19.143  -0.985  -0.506  -0.370  -0.289
  1 A1    2 A1    1 B1    3 A1    1 B2                                         
 -- Virtual --                   
  0.054   0.137   0.761   0.829   0.891   0.894   1.060   1.187
  4 A1    2 B1    3 B1    5 A1    2 B2    6 A1    4 B1    7 A1                 
  1.737   1.753   1.785   2.244   2.524   3.537
  8 A1    1 A2    3 B2    9 A1    5 B1   10 A1                                 
 
 Beta MOs, Restricted
 -- Occupied --                  
-19.143  -0.985  -0.506  -0.370  -0.289
  1 A1    2 A1    1 B1    3 A1    1 B2                                         
 -- Virtual --                   
  0.054   0.137   0.761   0.829   0.891   0.894   1.060   1.187
  4 A1    2 B1    3 B1    5 A1    2 B2    6 A1    4 B1    7 A1                 
  1.737   1.753   1.785   2.244   2.524   3.537
  8 A1    1 A2    3 B2    9 A1    5 B1   10 A1                                 
 --------------------------------------------------------------
 

                        RESTRICTED (RHF) MOLECULAR ORBITAL COEFFICIENTS
                         1         2         3         4         5         6
 eigenvalues:        -19.143    -0.985    -0.506    -0.370    -0.289     0.054
   1  O     s        0.99289  -0.21067   0.00000  -0.08690   0.00000   0.09927
   2  O     s        0.02619   0.47087   0.00000   0.17482   0.00000  -0.12263
   3  O     px       0.00000   0.00000   0.51282   0.00000   0.00000   0.00000
   4  O     py       0.00000   0.00000   0.00000   0.00000   0.64539   0.00000
   5  O     pz      -0.00108  -0.12059   0.00000   0.54886   0.00000   0.29480
   6  O     s        0.00991   0.45354   0.00000   0.40481   0.00000  -1.19089
   7  O     px       0.00000   0.00000   0.27416   0.00000   0.00000   0.00000
   8  O     py       0.00000   0.00000   0.00000   0.00000   0.50524   0.00000
   9  O     pz       0.00001  -0.06197   0.00000   0.37109   0.00000   0.47955
  10  O     dxx     -0.00772   0.01841   0.00000  -0.00097   0.00000   0.04375
  11  O     dxy      0.00000   0.00000   0.00000   0.00000   0.00000   0.00000
  12  O     dyy     -0.00766  -0.01172   0.00000  -0.00076   0.00000   0.05484
  13  O     dxz      0.00000   0.00000  -0.04052   0.00000   0.00000   0.00000
  14  O     dyz      0.00000   0.00000   0.00000   0.00000  -0.03368   0.00000
  15  O     dzz     -0.00769   0.01462   0.00000  -0.05079   0.00000   0.02493
  16  H 1   s        0.00037   0.13210  -0.23498  -0.14646   0.00000   0.10705
  17  H 1   s       -0.00100   0.00733  -0.14812  -0.12293   0.00000   0.93757
  18  H 2   s        0.00037   0.13210   0.23498  -0.14646   0.00000   0.10705
  19  H 2   s       -0.00100   0.00733   0.14812  -0.12293   0.00000   0.93757
                         7         8         9        10
 eigenvalues:          0.137     0.761     0.829     0.891
   1  O     s        0.00000   0.00000   0.03716   0.00000
   2  O     s        0.00000   0.00000  -0.26348   0.00000
   3  O     px       0.42360  -0.19864   0.00000   0.00000
   4  O     py       0.00000   0.00000   0.00000  -0.95890
   5  O     pz       0.00000   0.00000   0.57000   0.00000
   6  O     s        0.00000   0.00000   0.40992   0.00000
   7  O     px       0.74267  -0.31010   0.00000   0.00000
   8  O     py       0.00000   0.00000   0.00000   1.03905
   9  O     pz       0.00000   0.00000  -0.23611   0.00000
  10  O     dxx      0.00000   0.00000   0.11686   0.00000
  11  O     dxy      0.00000   0.00000   0.00000   0.00000
  12  O     dyy      0.00000   0.00000  -0.16257   0.00000
  13  O     dxz     -0.01675  -0.19651   0.00000   0.00000
  14  O     dyz      0.00000   0.00000   0.00000  -0.01635
  15  O     dzz      0.00000   0.00000  -0.03288   0.00000
  16  H 1   s        0.11737  -0.83718   0.78386   0.00000
  17  H 1   s        1.20999   0.73742  -0.63831   0.00000
  18  H 2   s       -0.11737   0.83718   0.78386   0.00000
  19  H 2   s       -1.20999  -0.73742  -0.63831   0.00000
 
          Ground-State Mulliken Net Atomic Charges

     Atom                 Charge (a.u.)
  ----------------------------------------
      1 O                    -0.765930
      2 H                     0.382965
      3 H                     0.382965
  ----------------------------------------
  Sum of atomic charges =     0.000000

 -----------------------------------------------------------------
                    Cartesian Multipole Moments
 -----------------------------------------------------------------
    Charge (ESU x 10^10)
                 0.0000
    Dipole Moment (Debye)
         X       0.0000      Y       0.0000      Z      -2.0975
       Tot       2.0975
    Quadrupole Moments (Debye-Ang)
        XX      -4.2283     XY       0.0000     YY      -7.2644
        XZ       0.0000     YZ       0.0000     ZZ      -6.0102
    Octapole Moments (Debye-Ang^2)
       XXX       0.0000    XXY       0.0000    XYY       0.0000
       YYY       0.0000    XXZ      -1.2848    XYZ       0.0000
       YYZ      -0.2985    XZZ       0.0000    YZZ       0.0000
       ZZZ      -1.1677
    Hexadecapole Moments (Debye-Ang^3)
      XXXX      -6.3410   XXXY       0.0000   XXYY      -2.2093
      XYYY       0.0000   YYYY      -5.2854   XXXZ       0.0000
      XXYZ       0.0000   XYYZ       0.0000   YYYZ       0.0000
      XXZZ      -1.7875   XYZZ       0.0000   YYZZ      -2.0200
      XZZZ       0.0000   YZZZ       0.0000   ZZZZ      -6.5046
 -----------------------------------------------------------------
 Calculating analytic gradient of the SCF energy
 Gradient of SCF Energy
            1           2           3
    1   0.0000000  -0.0227805   0.0227805
    2  -0.0000000   0.0000000  -0.0000000
    3   0.0295061  -0.0147530  -0.0147530
 Max gradient component =       2.951E-02
 RMS gradient           =       1.614E-02
 Gradient time:  CPU 0.24 s  wall 0.75 s


** GEOMETRY OPTIMIZATION IN DELOCALIZED INTERNAL COORDINATES **
   Searching for a Minimum

   Optimization Cycle:   1

                       Coordinates (Angstroms)
     ATOM              X           Y           Z
    1  O           0.000000    0.000000    0.123132
    2  H          -0.788011    0.000000   -0.492529
    3  H           0.788011    0.000000   -0.492529
   Point Group: c2v   Number of degrees of freedom:   2


   Energy is    -76.407269674


 Attempting to Generate Delocalized Internal Coordinates

  2 Hessian modes will be used to form the next step
  Hessian Eigenvalues:
     0.160000    0.476883

 Minimum Search - Taking Simple RFO Step
 Searching for Lamda that Minimizes Along All modes
 Value Taken    Lamda =  -0.00317069
 Step Taken.  Stepsize is  0.084350

                             Maximum     Tolerance    Cnvgd?
         Gradient           0.028511      0.000300      NO
         Displacement       0.068835      0.001200      NO
         Energy change     *********      0.000001      NO


 New Cartesian Coordinates Obtained by Inverse Iteration

 Displacement from previous Coordinates is:  0.085977
 Writing REM_CC_EA            3
 ----------------------------------------------------
       Standard Nuclear Orientation (Angstroms)
    I     Atom         X            Y            Z
 ----------------------------------------------------
    1      O       0.000000     0.000000     0.117944
    2      H      -0.756155     0.000000    -0.489935
    3      H       0.756155     0.000000    -0.489935
 ----------------------------------------------------
 Molecular Point Group                 C2v   NOp =  4
 Largest Abelian Subgroup              C2v   NOp =  4
 Nuclear Repulsion Energy =     9.0768148830 hartrees
 There are        5 alpha and        5 beta electrons
 Applying Cartesian multipole field
    Component          Value
    ---------          -----
     (2,0,0)        1.00000E-10
     (0,2,0)        2.00000E-10
     (0,0,2)       -3.00000E-10
 Nucleus-field energy     =    -0.0000000002 hartrees
 Requested basis set is 6-31G(d)
Basis set in general basis input format:
-----------------------------------------------------------------------
$basis
O    0
S    6    1.000000
   5.48467170E+03    1.83110000E-03 
   8.25234950E+02    1.39501000E-02 
   1.88046960E+02    6.84451000E-02 
   5.29645000E+01    2.32714300E-01 
   1.68975700E+01    4.70193000E-01 
   5.79963530E+00    3.58520900E-01 
SP   3    1.000000
   1.55396160E+01   -1.10777500E-01   7.08743000E-02 
   3.59993360E+00   -1.48026300E-01   3.39752800E-01 
   1.01376180E+00    1.13076700E+00   7.27158600E-01 
SP   1    1.000000
   2.70005800E-01    1.00000000E+00   1.00000000E+00 
D    1    1.000000
   8.00000000E-01    1.00000000E+00 
****
H    0
S    3    1.000000
   1.87311370E+01    3.34946000E-02 
   2.82539370E+00    2.34726950E-01 
   6.40121700E-01    8.13757330E-01 
S    1    1.000000
   1.61277800E-01    1.00000000E+00 
****
H    0
S    3    1.000000
   1.87311370E+01    3.34946000E-02 
   2.82539370E+00    2.34726950E-01 
   6.40121700E-01    8.13757330E-01 
S    1    1.000000
   1.61277800E-01    1.00000000E+00 
****
$end
-----------------------------------------------------------------------
 There are 8 shells and 19 basis functions
 A cutoff of  1.0D-11 yielded     36 shell pairs
 There are    217 function pairs
Evaluating contribution to one-electron hamiltonian from nuclear
 Smallest overlap matrix eigenvalue = 2.28E-02
 Multipole matrices computed through 2nd order
 Guess MOs from SCF MO coefficient file
Reading MOs from coefficient file
Reading MOs from coefficient file
 A restricted hybrid HF-DFT SCF calculation will be
 performed using Pulay DIIS extrapolation
 Exchange:     0.2000 Hartree-Fock + 0.0800 Slater + 0.7200 Becke
 Correlation:  0.8100 LYP + 0.1900 VWN1RPA
 Using SG-1 standard quadrature grid
 SCF converges when DIIS error is below 1.0E-08
 Warning!  Inaccurate integrated density:
   Number of electrons =    10
   Numerical integral  =    10.023093226204
   Relative error      =     0.2309322620 %
 ---------------------------------------
  Cycle       Energy         DIIS Error
 ---------------------------------------
    1     -76.4307180316      6.57E-03
    2     -76.4088493331      1.27E-03
    3     -76.4088590980      1.17E-03
    4     -76.4089005556      2.97E-04
    5     -76.4089033133      1.57E-05
    6     -76.4089033214      3.25E-07
    7     -76.4089033215      2.76E-08
    8     -76.4089033215      5.05E-09 Convergence criterion met
 ---------------------------------------
 SCF time:  CPU 0.83 s  wall 1.65 s
 Analysis of SCF Wavefunction
 
 --------------------------------------------------------------
             Orbital Energies (a.u.) and Symmetries
 --------------------------------------------------------------
 
 Alpha MOs, Restricted
 -- Occupied --                  
-19.139  -0.998  -0.514  -0.375  -0.292
  1 A1    2 A1    1 B1    3 A1    1 B2                                         
 -- Virtual --                   
  0.062   0.147   0.767   0.863   0.890   0.896   1.064   1.198
  4 A1    2 B1    3 B1    5 A1    2 B2    6 A1    4 B1    7 A1                 
  1.726   1.748   1.779   2.279   2.572   3.549
  8 A1    1 A2    3 B2    9 A1    5 B1   10 A1                                 
 
 Beta MOs, Restricted
 -- Occupied --                  
-19.139  -0.998  -0.514  -0.375  -0.292
  1 A1    2 A1    1 B1    3 A1    1 B2                                         
 -- Virtual --                   
  0.062   0.147   0.767   0.863   0.890   0.896   1.064   1.198
  4 A1    2 B1    3 B1    5 A1    2 B2    6 A1    4 B1    7 A1                 
  1.726   1.748   1.779   2.279   2.572   3.549
  8 A1    1 A2    3 B2    9 A1    5 B1   10 A1                                 
 --------------------------------------------------------------
 

                        RESTRICTED (RHF) MOLECULAR ORBITAL COEFFICIENTS
                         1         2         3         4         5         6
 eigenvalues:        -19.139    -0.998    -0.514    -0.375    -0.292     0.062
   1  O     s        0.99286  -0.20934   0.00000  -0.08894   0.00000   0.10001
   2  O     s        0.02623   0.46892   0.00000   0.17910   0.00000  -0.11845
   3  O     px       0.00000   0.00000   0.51790   0.00000   0.00000   0.00000
   4  O     py       0.00000   0.00000   0.00000   0.00000   0.64475   0.00000
   5  O     pz      -0.00110  -0.12880   0.00000   0.54998   0.00000   0.28351
   6  O     s        0.01007   0.43940   0.00000   0.41329   0.00000  -1.25103
   7  O     px       0.00000   0.00000   0.27112   0.00000   0.00000   0.00000
   8  O     py       0.00000   0.00000   0.00000   0.00000   0.50585   0.00000
   9  O     pz       0.00000  -0.06135   0.00000   0.36926   0.00000   0.48196
  10  O     dxx     -0.00776   0.01822   0.00000   0.00083   0.00000   0.04487
  11  O     dxy      0.00000   0.00000   0.00000   0.00000   0.00000   0.00000
  12  O     dyy     -0.00772  -0.01099   0.00000  -0.00035   0.00000   0.05794
  13  O     dxz      0.00000   0.00000  -0.04161   0.00000   0.00000   0.00000
  14  O     dyz      0.00000   0.00000   0.00000   0.00000  -0.03568   0.00000
  15  O     dzz     -0.00774   0.01668   0.00000  -0.05274   0.00000   0.02665
  16  H 1   s        0.00037   0.13917  -0.23669  -0.14497   0.00000   0.09537
  17  H 1   s       -0.00102   0.00645  -0.14369  -0.11505   0.00000   0.96622
  18  H 2   s        0.00037   0.13917   0.23669  -0.14497   0.00000   0.09537
  19  H 2   s       -0.00102   0.00645   0.14369  -0.11505   0.00000   0.96622
                         7         8         9        10
 eigenvalues:          0.147     0.767     0.863     0.890
   1  O     s        0.00000   0.00000   0.03618   0.00000
   2  O     s        0.00000   0.00000  -0.09724   0.00000
   3  O     px       0.41423   0.16571   0.00000   0.00000
   4  O     py       0.00000   0.00000   0.00000  -0.95932
   5  O     pz       0.00000   0.00000   0.74679   0.00000
   6  O     s        0.00000   0.00000   0.08340   0.00000
   7  O     px       0.75504   0.42429   0.00000   0.00000
   8  O     py       0.00000   0.00000   0.00000   1.03871
   9  O     pz       0.00000   0.00000  -0.44233   0.00000
  10  O     dxx      0.00000   0.00000   0.15424   0.00000
  11  O     dxy      0.00000   0.00000   0.00000   0.00000
  12  O     dyy      0.00000   0.00000  -0.10353   0.00000
  13  O     dxz     -0.01813   0.19405   0.00000   0.00000
  14  O     dyz      0.00000   0.00000   0.00000  -0.01667
  15  O     dzz      0.00000   0.00000   0.02974   0.00000
  16  H 1   s        0.10971   0.83876   0.67872   0.00000
  17  H 1   s        1.27656  -0.66571  -0.53558   0.00000
  18  H 2   s       -0.10971  -0.83876   0.67872   0.00000
  19  H 2   s       -1.27656   0.66571  -0.53558   0.00000
 
          Ground-State Mulliken Net Atomic Charges

     Atom                 Charge (a.u.)
  ----------------------------------------
      1 O                    -0.771781
      2 H                     0.385890
      3 H                     0.385890
  ----------------------------------------
  Sum of atomic charges =     0.000000

 -----------------------------------------------------------------
                    Cartesian Multipole Moments
 -----------------------------------------------------------------
    Charge (ESU x 10^10)
                 0.0000
    Dipole Moment (Debye)
         X       0.0000      Y       0.0000      Z      -2.1147
       Tot       2.1147
    Quadrupole Moments (Debye-Ang)
        XX      -4.3408     XY       0.0000     YY      -7.2072
        XZ       0.0000     YZ       0.0000     ZZ      -5.9432
    Octapole Moments (Debye-Ang^2)
       XXX       0.0000    XXY       0.0000    XYY       0.0000
       YYY       0.0000    XXZ      -1.1929    XYZ       0.0000
       YYZ      -0.2992    XZZ       0.0000    YZZ       0.0000
       ZZZ      -1.1715
    Hexadecapole Moments (Debye-Ang^3)
      XXXX      -6.1102   XXXY       0.0000   XXYY      -2.1178
      XYYY       0.0000   YYYY      -5.2181   XXXZ       0.0000
      XXYZ       0.0000   XYYZ       0.0000   YYYZ       0.0000
      XXZZ      -1.7337   XYZZ       0.0000   YYZZ      -1.9751
      XZZZ       0.0000   YZZZ       0.0000   ZZZZ      -6.3113
 -----------------------------------------------------------------
 Calculating analytic gradient of the SCF energy
 Gradient of SCF Energy
            1           2           3
    1   0.0000000   0.0006497  -0.0006497
    2  -0.0000000   0.0000000  -0.0000000
    3   0.0041754  -0.0020877  -0.0020877
 Max gradient component =       4.175E-03
 RMS gradient           =       1.732E-03
 Gradient time:  CPU 0.19 s  wall 0.29 s

 Cartesian Hessian Update
 Hessian Updated using BFGS Update


** GEOMETRY OPTIMIZATION IN DELOCALIZED INTERNAL COORDINATES **
   Searching for a Minimum

   Optimization Cycle:   2

                       Coordinates (Angstroms)
     ATOM              X           Y           Z
    1  O           0.000000    0.000000    0.117944
    2  H          -0.756155    0.000000   -0.489935
    3  H           0.756155    0.000000   -0.489935
   Point Group: c2v   Number of degrees of freedom:   2


   Energy is    -76.408903321

 Hessian Updated using BFGS Update

  2 Hessian modes will be used to form the next step
  Hessian Eigenvalues:
     0.168725    0.457382

 Minimum Search - Taking Simple RFO Step
 Searching for Lamda that Minimizes Along All modes
 Value Taken    Lamda =  -0.00008887
 Step Taken.  Stepsize is  0.022881

                             Maximum     Tolerance    Cnvgd?
         Gradient           0.003087      0.000300      NO
         Displacement       0.016772      0.001200      NO
         Energy change     -0.001634      0.000001      NO


 New Cartesian Coordinates Obtained by Inverse Iteration

 Displacement from previous Coordinates is:  0.020659
 Writing REM_CC_EA            3
 ----------------------------------------------------
       Standard Nuclear Orientation (Angstroms)
    I     Atom         X            Y            Z
 ----------------------------------------------------
    1      O       0.000000     0.000000     0.111557
    2      H      -0.761555     0.000000    -0.486742
    3      H       0.761555     0.000000    -0.486742
 ----------------------------------------------------
 Molecular Point Group                 C2v   NOp =  4
 Largest Abelian Subgroup              C2v   NOp =  4
 Nuclear Repulsion Energy =     9.0899528536 hartrees
 There are        5 alpha and        5 beta electrons
 Applying Cartesian multipole field
    Component          Value
    ---------          -----
     (2,0,0)        1.00000E-10
     (0,2,0)        2.00000E-10
     (0,0,2)       -3.00000E-10
 Nucleus-field energy     =    -0.0000000002 hartrees
 Requested basis set is 6-31G(d)
Basis set in general basis input format:
-----------------------------------------------------------------------
$basis
O    0
S    6    1.000000
   5.48467170E+03    1.83110000E-03 
   8.25234950E+02    1.39501000E-02 
   1.88046960E+02    6.84451000E-02 
   5.29645000E+01    2.32714300E-01 
   1.68975700E+01    4.70193000E-01 
   5.79963530E+00    3.58520900E-01 
SP   3    1.000000
   1.55396160E+01   -1.10777500E-01   7.08743000E-02 
   3.59993360E+00   -1.48026300E-01   3.39752800E-01 
   1.01376180E+00    1.13076700E+00   7.27158600E-01 
SP   1    1.000000
   2.70005800E-01    1.00000000E+00   1.00000000E+00 
D    1    1.000000
   8.00000000E-01    1.00000000E+00 
****
H    0
S    3    1.000000
   1.87311370E+01    3.34946000E-02 
   2.82539370E+00    2.34726950E-01 
   6.40121700E-01    8.13757330E-01 
S    1    1.000000
   1.61277800E-01    1.00000000E+00 
****
H    0
S    3    1.000000
   1.87311370E+01    3.34946000E-02 
   2.82539370E+00    2.34726950E-01 
   6.40121700E-01    8.13757330E-01 
S    1    1.000000
   1.61277800E-01    1.00000000E+00 
****
$end
-----------------------------------------------------------------------
 There are 8 shells and 19 basis functions
 A cutoff of  1.0D-11 yielded     36 shell pairs
 There are    217 function pairs
Evaluating contribution to one-electron hamiltonian from nuclear
 Smallest overlap matrix eigenvalue = 2.27E-02
 Multipole matrices computed through 2nd order
 Guess MOs from SCF MO coefficient file
Reading MOs from coefficient file
Reading MOs from coefficient file
 A restricted hybrid HF-DFT SCF calculation will be
 performed using Pulay DIIS extrapolation
 Exchange:     0.2000 Hartree-Fock + 0.0800 Slater + 0.7200 Becke
 Correlation:  0.8100 LYP + 0.1900 VWN1RPA
 Using SG-1 standard quadrature grid
 SCF converges when DIIS error is below 1.0E-08
 ---------------------------------------
  Cycle       Energy         DIIS Error
 ---------------------------------------
    1     -76.4106400962      7.08E-04
    2     -76.4089432419      2.99E-04
    3     -76.4089441022      2.56E-04
    4     -76.4089461642      2.86E-05
    5     -76.4089461902      9.67E-07
    6     -76.4089461903      1.33E-07
    7     -76.4089461903      4.40E-09 Convergence criterion met
 ---------------------------------------
 SCF time:  CPU 0.74 s  wall 1.34 s
 Analysis of SCF Wavefunction
 
 --------------------------------------------------------------
             Orbital Energies (a.u.) and Symmetries
 --------------------------------------------------------------
 
 Alpha MOs, Restricted
 -- Occupied --                  
-19.138  -0.998  -0.517  -0.372  -0.291
  1 A1    2 A1    1 B1    3 A1    1 B2                                         
 -- Virtual --                   
  0.063   0.148   0.773   0.861   0.891   0.895   1.066   1.193
  4 A1    2 B1    3 B1    5 A1    2 B2    6 A1    4 B1    7 A1                 
  1.729   1.746   1.780   2.281   2.578   3.552
  8 A1    1 A2    3 B2    9 A1    5 B1   10 A1                                 
 
 Beta MOs, Restricted
 -- Occupied --                  
-19.138  -0.998  -0.517  -0.372  -0.291
  1 A1    2 A1    1 B1    3 A1    1 B2                                         
 -- Virtual --                   
  0.063   0.148   0.773   0.861   0.891   0.895   1.066   1.193
  4 A1    2 B1    3 B1    5 A1    2 B2    6 A1    4 B1    7 A1                 
  1.729   1.746   1.780   2.281   2.578   3.552
  8 A1    1 A2    3 B2    9 A1    5 B1   10 A1                                 
 --------------------------------------------------------------
 

                        RESTRICTED (RHF) MOLECULAR ORBITAL COEFFICIENTS
                         1         2         3         4         5         6
 eigenvalues:        -19.138    -0.998    -0.517    -0.372    -0.291     0.063
   1  O     s        0.99286  -0.20950   0.00000  -0.08808   0.00000   0.10067
   2  O     s        0.02622   0.46921   0.00000   0.17721   0.00000  -0.11930
   3  O     px       0.00000   0.00000   0.51745   0.00000   0.00000   0.00000
   4  O     py       0.00000   0.00000   0.00000   0.00000   0.64457   0.00000
   5  O     pz      -0.00110  -0.12770   0.00000   0.55189   0.00000   0.28049
   6  O     s        0.01011   0.43943   0.00000   0.41036   0.00000  -1.25846
   7  O     px       0.00000   0.00000   0.26969   0.00000   0.00000   0.00000
   8  O     py       0.00000   0.00000   0.00000   0.00000   0.50606   0.00000
   9  O     pz       0.00000  -0.06062   0.00000   0.37225   0.00000   0.47730
  10  O     dxx     -0.00777   0.01880   0.00000   0.00090   0.00000   0.04511
  11  O     dxy      0.00000   0.00000   0.00000   0.00000   0.00000   0.00000
  12  O     dyy     -0.00773  -0.01093   0.00000  -0.00026   0.00000   0.05807
  13  O     dxz      0.00000   0.00000  -0.04126   0.00000   0.00000   0.00000
  14  O     dyz      0.00000   0.00000   0.00000   0.00000  -0.03544   0.00000
  15  O     dzz     -0.00775   0.01606   0.00000  -0.05242   0.00000   0.02735
  16  H 1   s        0.00037   0.13919  -0.23748  -0.14367   0.00000   0.09624
  17  H 1   s       -0.00103   0.00645  -0.14186  -0.11420   0.00000   0.96935
  18  H 2   s        0.00037   0.13919   0.23748  -0.14367   0.00000   0.09624
  19  H 2   s       -0.00103   0.00645   0.14186  -0.11420   0.00000   0.96935
                         7         8         9        10
 eigenvalues:          0.148     0.773     0.861     0.891
   1  O     s        0.00000   0.00000   0.03781   0.00000
   2  O     s        0.00000   0.00000  -0.13492   0.00000
   3  O     px       0.41336   0.17227   0.00000   0.00000
   4  O     py       0.00000   0.00000   0.00000  -0.95944
   5  O     pz       0.00000   0.00000   0.70799   0.00000
   6  O     s        0.00000   0.00000   0.13356   0.00000
   7  O     px       0.75903   0.43149   0.00000   0.00000
   8  O     py       0.00000   0.00000   0.00000   1.03862
   9  O     pz       0.00000   0.00000  -0.38321   0.00000
  10  O     dxx      0.00000   0.00000   0.15390   0.00000
  11  O     dxy      0.00000   0.00000   0.00000   0.00000
  12  O     dyy      0.00000   0.00000  -0.11910   0.00000
  13  O     dxz     -0.01846   0.19609   0.00000   0.00000
  14  O     dyz      0.00000   0.00000   0.00000  -0.01639
  15  O     dzz      0.00000   0.00000   0.01178   0.00000
  16  H 1   s        0.10721   0.84028   0.71166   0.00000
  17  H 1   s        1.27826  -0.65440  -0.55150   0.00000
  18  H 2   s       -0.10721  -0.84028   0.71166   0.00000
  19  H 2   s       -1.27826   0.65440  -0.55150   0.00000
 
          Ground-State Mulliken Net Atomic Charges

     Atom                 Charge (a.u.)
  ----------------------------------------
      1 O                    -0.774450
      2 H                     0.387225
      3 H                     0.387225
  ----------------------------------------
  Sum of atomic charges =     0.000000

 -----------------------------------------------------------------
                    Cartesian Multipole Moments
 -----------------------------------------------------------------
    Charge (ESU x 10^10)
                 0.0000
    Dipole Moment (Debye)
         X       0.0000      Y       0.0000      Z      -2.0947
       Tot       2.0947
    Quadrupole Moments (Debye-Ang)
        XX      -4.2851     XY       0.0000     YY      -7.2034
        XZ       0.0000     YZ       0.0000     ZZ      -5.9567
    Octapole Moments (Debye-Ang^2)
       XXX       0.0000    XXY       0.0000    XYY       0.0000
       YYY       0.0000    XXZ      -1.1778    XYZ       0.0000
       YYZ      -0.2653    XZZ       0.0000    YZZ       0.0000
       ZZZ      -1.0716
    Hexadecapole Moments (Debye-Ang^3)
      XXXX      -6.0575   XXXY       0.0000   XXYY      -2.1168
      XYYY       0.0000   YYYY      -5.2137   XXXZ       0.0000
      XXYZ       0.0000   XYYZ       0.0000   YYYZ       0.0000
      XXZZ      -1.7219   XYZZ       0.0000   YYZZ      -1.9626
      XZZZ       0.0000   YZZZ       0.0000   ZZZZ      -6.2551
 -----------------------------------------------------------------
 Calculating analytic gradient of the SCF energy
 Gradient of SCF Energy
            1           2           3
    1   0.0000000   0.0000997  -0.0000997
    2  -0.0000000   0.0000000   0.0000000
    3  -0.0002661   0.0001331   0.0001331
 Max gradient component =       2.661E-04
 RMS gradient           =       1.184E-04
 Gradient time:  CPU 0.20 s  wall 0.40 s

 Cartesian Hessian Update
 Hessian Updated using BFGS Update


** GEOMETRY OPTIMIZATION IN DELOCALIZED INTERNAL COORDINATES **
   Searching for a Minimum

   Optimization Cycle:   3

                       Coordinates (Angstroms)
     ATOM              X           Y           Z
    1  O           0.000000    0.000000    0.111557
    2  H          -0.761555    0.000000   -0.486742
    3  H           0.761555    0.000000   -0.486742
   Point Group: c2v   Number of degrees of freedom:   2


   Energy is    -76.408946190

 Hessian Updated using BFGS Update

  2 Hessian modes will be used to form the next step
  Hessian Eigenvalues:
     0.172923    0.460675

 Minimum Search - Taking Simple RFO Step
 Searching for Lamda that Minimizes Along All modes
 Value Taken    Lamda =   0.00000000
 Step Taken.  Stepsize is  0.000768

                             Maximum     Tolerance    Cnvgd?
         Gradient           0.000231      0.000300     YES
         Displacement       0.000756      0.001200     YES
         Energy change     -0.000043      0.000001      NO


                       Distance Matrix (Angstroms)
             O (  1)   H (  2)
   H (  2)  0.968466
   H (  3)  0.968466  1.523109
 


 ******************************
 **  OPTIMIZATION CONVERGED  **
 ******************************

Z-matrix Print:
$molecule
0,1
1 O 
2 H  1 0.968466
3 H  1 0.968466 2 103.691638
$end

 Analysis of SCF Wavefunction
 
 --------------------------------------------------------------
             Orbital Energies (a.u.) and Symmetries
 --------------------------------------------------------------
 
 Alpha MOs, Restricted
 -- Occupied --                  
-19.138  -0.998  -0.517  -0.372  -0.291
  1 A1    2 A1    1 B1    3 A1    1 B2                                         
 -- Virtual --                   
  0.063   0.148   0.773   0.861   0.891   0.895   1.066   1.193
  4 A1    2 B1    3 B1    5 A1    2 B2    6 A1    4 B1    7 A1                 
  1.729   1.746   1.780   2.281   2.578   3.552
  8 A1    1 A2    3 B2    9 A1    5 B1   10 A1                                 
 
 Beta MOs, Restricted
 -- Occupied --                  
-19.138  -0.998  -0.517  -0.372  -0.291
  1 A1    2 A1    1 B1    3 A1    1 B2                                         
 -- Virtual --                   
  0.063   0.148   0.773   0.861   0.891   0.895   1.066   1.193
  4 A1    2 B1    3 B1    5 A1    2 B2    6 A1    4 B1    7 A1                 
  1.729   1.746   1.780   2.281   2.578   3.552
  8 A1    1 A2    3 B2    9 A1    5 B1   10 A1                                 
 --------------------------------------------------------------
 

                        RESTRICTED (RHF) MOLECULAR ORBITAL COEFFICIENTS
                         1         2         3         4         5         6
 eigenvalues:        -19.138    -0.998    -0.517    -0.372    -0.291     0.063
   1  O     s        0.99286  -0.20950   0.00000  -0.08808   0.00000   0.10067
   2  O     s        0.02622   0.46921   0.00000   0.17721   0.00000  -0.11930
   3  O     px       0.00000   0.00000   0.51745   0.00000   0.00000   0.00000
   4  O     py       0.00000   0.00000   0.00000   0.00000   0.64457   0.00000
   5  O     pz      -0.00110  -0.12770   0.00000   0.55189   0.00000   0.28049
   6  O     s        0.01011   0.43943   0.00000   0.41036   0.00000  -1.25846
   7  O     px       0.00000   0.00000   0.26969   0.00000   0.00000   0.00000
   8  O     py       0.00000   0.00000   0.00000   0.00000   0.50606   0.00000
   9  O     pz       0.00000  -0.06062   0.00000   0.37225   0.00000   0.47730
  10  O     dxx     -0.00777   0.01880   0.00000   0.00090   0.00000   0.04511
  11  O     dxy      0.00000   0.00000   0.00000   0.00000   0.00000   0.00000
  12  O     dyy     -0.00773  -0.01093   0.00000  -0.00026   0.00000   0.05807
  13  O     dxz      0.00000   0.00000  -0.04126   0.00000   0.00000   0.00000
  14  O     dyz      0.00000   0.00000   0.00000   0.00000  -0.03544   0.00000
  15  O     dzz     -0.00775   0.01606   0.00000  -0.05242   0.00000   0.02735
  16  H 1   s        0.00037   0.13919  -0.23748  -0.14367   0.00000   0.09624
  17  H 1   s       -0.00103   0.00645  -0.14186  -0.11420   0.00000   0.96935
  18  H 2   s        0.00037   0.13919   0.23748  -0.14367   0.00000   0.09624
  19  H 2   s       -0.00103   0.00645   0.14186  -0.11420   0.00000   0.96935
                         7         8         9        10
 eigenvalues:          0.148     0.773     0.861     0.891
   1  O     s        0.00000   0.00000   0.03781   0.00000
   2  O     s        0.00000   0.00000  -0.13492   0.00000
   3  O     px       0.41336   0.17227   0.00000   0.00000
   4  O     py       0.00000   0.00000   0.00000  -0.95944
   5  O     pz       0.00000   0.00000   0.70799   0.00000
   6  O     s        0.00000   0.00000   0.13356   0.00000
   7  O     px       0.75903   0.43149   0.00000   0.00000
   8  O     py       0.00000   0.00000   0.00000   1.03862
   9  O     pz       0.00000   0.00000  -0.38321   0.00000
  10  O     dxx      0.00000   0.00000   0.15390   0.00000
  11  O     dxy      0.00000   0.00000   0.00000   0.00000
  12  O     dyy      0.00000   0.00000  -0.11910   0.00000
  13  O     dxz     -0.01846   0.19609   0.00000   0.00000
  14  O     dyz      0.00000   0.00000   0.00000  -0.01639
  15  O     dzz      0.00000   0.00000   0.01178   0.00000
  16  H 1   s        0.10721   0.84028   0.71166   0.00000
  17  H 1   s        1.27826  -0.65440  -0.55150   0.00000
  18  H 2   s       -0.10721  -0.84028   0.71166   0.00000
  19  H 2   s       -1.27826   0.65440  -0.55150   0.00000
 
          Ground-State Mulliken Net Atomic Charges

     Atom                 Charge (a.u.)
  ----------------------------------------
      1 O                    -0.774450
      2 H                     0.387225
      3 H                     0.387225
  ----------------------------------------
  Sum of atomic charges =     0.000000

 -----------------------------------------------------------------
                    Cartesian Multipole Moments
 -----------------------------------------------------------------
    Charge (ESU x 10^10)
                 0.0000
    Dipole Moment (Debye)
         X       0.0000      Y       0.0000      Z      -2.0947
       Tot       2.0947
    Quadrupole Moments (Debye-Ang)
        XX      -4.2851     XY       0.0000     YY      -7.2034
        XZ       0.0000     YZ       0.0000     ZZ      -5.9567
    Octapole Moments (Debye-Ang^2)
       XXX       0.0000    XXY       0.0000    XYY       0.0000
       YYY       0.0000    XXZ      -1.1778    XYZ       0.0000
       YYZ      -0.2653    XZZ       0.0000    YZZ       0.0000
       ZZZ      -1.0716
    Hexadecapole Moments (Debye-Ang^3)
      XXXX      -6.0575   XXXY       0.0000   XXYY      -2.1168
      XYYY       0.0000   YYYY      -5.2137   XXXZ       0.0000
      XXYZ       0.0000   XYYZ       0.0000   YYYZ       0.0000
      XXZZ      -1.7219   XYZZ       0.0000   YYZZ      -1.9626
      XZZZ       0.0000   YZZZ       0.0000   ZZZZ      -6.2551
 -----------------------------------------------------------------
Archival summary:
1\1\alphawulf\OPT\ProcedureUnspecified\6-31G*\O1H2\rkanters\19Jun2009\0\\#,OPT,ProcedureUnspecified,6-31G*,\\0,1\O\H,1,0.968466\H,1,0.968466,2,103.692\\\@

 Total job time:  7.25s(wall), 3.26s(cpu) 
 Fri Jun 19 11:43:07 2009

        *************************************************************
        *                                                           *
        *  Thank you very much for using Q-Chem.  Have a nice day.  *
        *                                                           *
        *************************************************************


0 sent ACK to 0 
now end server 0 ... 
