 *******************************************************************************
 **                            MOPAC2002 (c) Fujitsu                          **
 *******************************************************************************

                              PM3 CALCULATION RESULTS


 *******************************************************************************
 *              MOPAC2002 Version 2.40CAChe    CALC.'D.  Sep  7 08:22:02 2007
 *                                           Microsoft(R) Windows 95/98/NT/2000.
 *  PM3      - THE PM3 HAMILTONIAN TO BE USED
 *  NOMM     - DO NOT MAKE MM CORRECTION TO CONH BARRIER
 *  NODIIS   - DO NOT USE GDIIS GEOMETRY OPTIMIZER
 *  T=       - A TIME OF    10.0 DAYS    REQUESTED
 *  DUMP=N   - RESTART FILE WRITTEN EVERY  7200.000 SECONDS
 *  VECTORS  - FINAL EIGENVECTORS TO BE PRINTED
 *  BONDS    - FINAL BOND-ORDER MATRIX TO BE PRINTED
 *  NOLOG    - SUPPRESS LOG FILE TRAIL, WHERE POSSIBLE
 *  GRAPH    - GENERATE FILE FOR GRAPHICS
 *******************************************************************************
 PM3 NOMM BONDS VECTORS NODIIS GRAPH T=10D
 Optimize geometry
 CAChe_MOPAC_coordinate_shift:     -1.161112        0.311967       -0.165413
  ATOM    CHEMICAL     BOND LENGTH    BOND ANGLE    TWIST ANGLE 
 NUMBER    SYMBOL      (ANGSTROMS)    (DEGREES)     (DEGREES) 
   (I)                   NA:I          NB:NA:I       NC:NB:NA:I       NA    NB    NC 
    1       C(  1)         0.000000      0.000000       0.000000                      
    2      XX(   )         3.441824      0.000000       0.000000        1             
    3      XX(   )         2.149350     90.000000       0.000000        2     1       
    4       C(  2)         1.517540  *  20.901008  *    0.032596  *     1     2     3 
    5       O(  3)         1.409850  * 107.816118  *  -59.844107  *     4     1     2 
    6       H(  4)         1.097901  *  91.043738  *  179.398048  *     1     2     4 
    7       H(  5)         1.098043  * 120.810674  *  110.724983  *     1     2     6 
    8       H(  6)         1.097265  * 119.809331  *  138.257760  *     1     2     7 
    9       H(  7)         1.108037  * 110.826435  *  120.650124  *     4     1     5 
   10       H(  8)         1.107993  * 110.885312  *  118.761122  *     4     1     9 
   11       H(  9)         0.947369  * 106.428044  * -179.990377  *     5     4     1 


          CARTESIAN COORDINATES 

    NO.       ATOM           X             Y             Z

     1         C        0.00000000    0.00000000    0.00000000
     2         C        1.41768313    0.54138904   -0.00030800
     3         O        2.06121303    0.06602911    1.16054480
     4         H       -0.01999899   -1.09766464   -0.01090800
     5         H       -0.56242078    0.32495488    0.88531668
     6         H       -0.54546719    0.35027713   -0.88530331
     7         H        1.96592525    0.20950596   -0.90420523
     8         H        1.41739014    1.64934977   -0.00875898
     9         H        2.94182377    0.41479000    1.14057980


      RHF CALCULATION, NO. OF DOUBLY OCCUPIED LEVELS =    10
 
    Memory needed:       85508 bytes
 Memory available:  1048576000 bytes
 
  H: (PM3): J. J. P. STEWART, J. COMP. CHEM. 10, 209 (1989).                    
  C: (PM3): J. J. P. STEWART, J. COMP. CHEM. 10, 209 (1989).                    
  O: (PM3): J. J. P. STEWART, J. COMP. CHEM. 10, 209 (1989).                    

           EMPIRICAL FORMULA: C2 H6 O 



      MOLECULAR POINT GROUP   :   Cs  

 -------------------------------------------------------------------------------
 PM3 NOMM BONDS VECTORS NODIIS GRAPH T=10D
 Optimize geometry
 CAChe_MOPAC_coordinate_shift:     -1.161112        0.311967       -0.165413


     GRADIENTS WERE INITIALLY ACCEPTABLY SMALL                
     SCF FIELD WAS ACHIEVED                                   


                                  PM3  CALCULATION
                                                       MOPAC2002 Version 2.40
                                                       Sep  7 08:22:02 2007




          FINAL HEAT OF FORMATION =        -56.88857 KCAL =       -238.02179 KJ


          TOTAL ENERGY            =       -623.66874 EV
          ELECTRONIC ENERGY       =      -1754.75466 EV  POINT GROUP:     Cs  
          CORE-CORE REPULSION     =       1131.08591 EV

          IONIZATION POTENTIAL    =         10.89942
          NO. OF FILLED LEVELS    =        10
          MOLECULAR WEIGHT        =     46.069

          MOLECULAR DIMENSIONS (Angstroms)

            Atom       Atom       Distance
            H     9    H     6     4.03355
            H     5    H     7     2.82069
            H     8    H     4     2.75832


          SCF CALCULATIONS =                1
          COMPUTATION TIME =           0.03 SECONDS
          WALL CLOCK TIME  =              0 SECONDS




  ATOM    CHEMICAL     BOND LENGTH    BOND ANGLE    TWIST ANGLE 
 NUMBER    SYMBOL      (ANGSTROMS)    (DEGREES)     (DEGREES) 
   (I)                   NA:I          NB:NA:I       NC:NB:NA:I       NA    NB    NC 
    1       C(  1)         0.000000      0.000000       0.000000                      
    2      XX(   )         3.441824      0.000000       0.000000        1             
    3      XX(   )         2.149350     90.000000       0.000000        2     1       
    4       C(  2)         1.517540  *  20.901008  *    0.032596  *     1     2     3 
    5       O(  3)         1.409850  * 107.816118  *  -59.844107  *     4     1     2 
    6       H(  4)         1.097901  *  91.043738  *  179.398048  *     1     2     4 
    7       H(  5)         1.098043  * 120.810674  *  110.724983  *     1     2     6 
    8       H(  6)         1.097265  * 119.809331  *  138.257760  *     1     2     7 
    9       H(  7)         1.108037  * 110.826435  *  120.650124  *     4     1     5 
   10       H(  8)         1.107993  * 110.885312  *  118.761122  *     4     1     9 
   11       H(  9)         0.947369  * 106.428044  * -179.990377  *     5     4     1 


      MOLECULAR POINT GROUP   :   Cs  


                EIGENVECTORS  


   Root No.     2       3       4       5       6       7       8       9

              2a'     3a'     4a'     1a"     5a'     6a'     2a"     7a'  

            -31.174 -22.303 -18.096 -16.202 -15.158 -13.380 -12.922 -12.605
  
  S   C   1 -0.5765 -0.3901  0.0215  0.0000  0.0222 -0.0547 -0.0005  0.0965
  Px  C   1 -0.0427  0.2135 -0.1301 -0.1156 -0.3351 -0.4008  0.1780  0.2989
  Py  C   1 -0.0279  0.0933  0.0594  0.3019 -0.2356  0.1529 -0.4725  0.2830
  Pz  C   1  0.0187 -0.0191 -0.1757  0.1875  0.1717 -0.4888 -0.2942 -0.2766
  S   C   2 -0.3121  0.5130 -0.0268 -0.0001 -0.0724 -0.0619 -0.0002  0.0161
  Px  C   2  0.1919  0.1629  0.0375 -0.1733  0.4413  0.2847 -0.0494 -0.2793
  Py  C   2  0.0045  0.1046  0.2564  0.4552  0.0049  0.0970  0.1348 -0.2662
  Pz  C   2  0.1107 -0.0683 -0.3899  0.2829  0.2629  0.0175  0.0818  0.2582
  S   O   3  0.4920 -0.2541 -0.1220 -0.0002 -0.2161  0.1062  0.0011 -0.1284
  Px  O   3  0.1265 -0.0901  0.6285 -0.1388  0.1540 -0.2659 -0.1630  0.2036
  Py  O   3  0.0170  0.1216  0.1010  0.3641  0.3599 -0.0507  0.4202  0.2726
  Pz  O   3  0.0503 -0.2511  0.2237  0.2257 -0.4848 -0.0860  0.2634 -0.3098
  S   H   4 -0.2361 -0.2372 -0.0300 -0.2288  0.1901 -0.1511  0.4102 -0.2140
  S   H   5 -0.2359 -0.2374 -0.0317  0.2274  0.1902 -0.1535 -0.4070 -0.2202
  S   H   6 -0.2576 -0.2118  0.1707  0.0019 -0.0246  0.5359 -0.0020  0.2028
  S   H   7 -0.1386  0.2955  0.1726 -0.3435 -0.0384  0.0512 -0.1104 -0.2463
  S   H   8 -0.1384  0.2956  0.1724  0.3435 -0.0382  0.0504  0.1127 -0.2454
  S   H   9  0.2029 -0.0719  0.4093  0.0001  0.1489 -0.2207 -0.0018  0.2106


   Root No.    10      11      12      13      14      15      16      17

              3a"     8a'     9a'     4a"    10a'    11a'    12a'     5a"  

            -10.899   3.334   3.735   3.834   4.104   4.524   4.742   4.790
  
  S   C   1 -0.0001  0.3277 -0.0895 -0.0032 -0.5095  0.1963  0.1145 -0.0005
  Px  C   1 -0.0547  0.2407  0.0998 -0.1128 -0.1243 -0.4786 -0.3918 -0.1826
  Py  C   1  0.1426  0.1471 -0.1151  0.2926  0.0424  0.0481 -0.3612  0.4838
  Pz  C   1  0.0885 -0.0885  0.2421  0.1833 -0.1487 -0.3728  0.3456  0.2972
  S   C   2 -0.0001 -0.5334 -0.3308 -0.0019 -0.0707  0.0054  0.1088 -0.0005
  Px  C   2  0.1164  0.0355 -0.0926 -0.1807 -0.5179 -0.2227 -0.3916  0.1337
  Py  C   2 -0.3045  0.1095 -0.2565  0.4614 -0.0906 -0.1519 -0.0625 -0.3467
  Pz  C   2 -0.1891 -0.1534  0.3487  0.2894 -0.1779  0.1079 -0.1449 -0.2143
  S   O   3  0.0000  0.1957 -0.1446 -0.0004  0.0972 -0.1067  0.1228 -0.0005
  Px  O   3 -0.2215  0.0612 -0.1500  0.0220 -0.0168 -0.2002  0.1479 -0.0196
  Py  O   3  0.5802  0.2116 -0.1182 -0.0602  0.1579 -0.0844  0.1422  0.0495
  Pz  O   3  0.3599 -0.3033  0.0990 -0.0381 -0.2640  0.0126 -0.1371  0.0320
  S   H   4 -0.1578 -0.0581 -0.0861  0.3070  0.3507 -0.0726 -0.3465  0.4071
  S   H   5  0.1568 -0.0569 -0.0854 -0.3031  0.3558 -0.0678 -0.3530 -0.4009
  S   H   6  0.0012 -0.2504  0.3290  0.0004  0.0962 -0.5632  0.1124 -0.0041
  S   H   7  0.3620  0.2677  0.3951  0.4194  0.0994  0.1052  0.0090 -0.2546
  S   H   8 -0.3620  0.2670  0.4003 -0.4137  0.1036  0.1052  0.0122  0.2550
  S   H   9  0.0000 -0.3046  0.3136  0.0018 -0.0648  0.3144 -0.2448  0.0009


              NET ATOMIC CHARGES AND DIPOLE CONTRIBUTIONS

  ATOM NO.   TYPE          CHARGE      No. of ELECS.   s-Pop       p-Pop       
    1          C          -0.123270        4.1233     1.13900     2.98427
    2          C           0.078610        3.9214     1.14773     2.77366
    3          O          -0.311497        6.3115     1.80862     4.50288
    4          H           0.048580        0.9514     0.95142
    5          H           0.048678        0.9513     0.95132
    6          H           0.040211        0.9598     0.95979
    7          H           0.017749        0.9823     0.98225
    8          H           0.017714        0.9823     0.98229
    9          H           0.183225        0.8168     0.81678
 DIPOLE           X         Y         Z       TOTAL
 POINT-CHG.     0.087     0.516    -0.777     0.937
 HYBRID         0.437     0.337    -0.273     0.615
 SUM            0.524     0.853    -1.050     1.451


          CARTESIAN COORDINATES 

    NO.       ATOM               X         Y         Z

     1         C                  0.0000    0.0000    0.0000
     2         C                  1.4177    0.5414   -0.0003
     3         O                  2.0612    0.0660    1.1605
     4         H                 -0.0200   -1.0977   -0.0109
     5         H                 -0.5624    0.3250    0.8853
     6         H                 -0.5455    0.3503   -0.8853
     7         H                  1.9659    0.2095   -0.9042
     8         H                  1.4174    1.6493   -0.0088
     9         H                  2.9418    0.4148    1.1406


          ATOMIC ORBITAL ELECTRON POPULATIONS

   1.13900   0.95772   1.01421   1.01233   1.14773   0.93379   0.95649   0.88338
   1.80862   1.29996   1.76562   1.43730   0.95142   0.95132   0.95979   0.98225
   0.98229   0.81678

          BONDING CONTRIBUTION OF EACH M.O.

  1.2561  1.5411  1.6975  1.8861  1.6305  1.5683  1.9988  1.4833  1.8020  1.0091
 -2.0969 -1.9875 -1.9694 -2.0182 -1.9429 -1.9450 -1.9789 -1.9339





                    BOND ORDERS AND VALENCIES


                 C   1      C   2      O   3      H   4      H   5      H   6
 ------------------------------------------------------------------------------
     C    1   3.977534
     C    2   0.993159   3.944886
     O    3   0.006765   0.997107   1.990900
     H    4   0.986313   0.002183   0.001459   0.997640
     H    5   0.986267   0.002188   0.001526   0.000550   0.997630
     H    6   0.986813   0.002810   0.006154   0.000687   0.000677   0.998383
     H    7   0.003194   0.972504   0.013542   0.000374   0.005991   0.000010
     H    8   0.003199   0.972526   0.013517   0.006003   0.000355   0.000014
     H    9   0.011825   0.002409   0.950830   0.000070   0.000076   0.001218


                 H   7      H   8      H   9
 ------------------------------------------
     H    7   0.999685
     H    8   0.004071   0.999686
     H    9   0.000001   0.000001   0.966429

           DATA FOR GRAPH WRITTEN TO DISK
