M-CHM-RKANTERS.local cluster:0 nodes:2 master=0
 argument  1 = H2O_2.nw
 argument  2 = -np
 argument  3 = 2
                                         
                                         


              Northwest Computational Chemistry Package (NWChem) 5.0
              ------------------------------------------------------


                    Environmental Molecular Sciences Laboratory
                       Pacific Northwest National Laboratory
                                Richland, WA 99352

                                         
                                         


                     COPYRIGHT (C) 1994, 1995, 1996, 1997, 1998,
                   1999, 2000, 2001, 2002, 2003, 2004, 2005, 2006
                        Pacific Northwest National Laboratory,
                             Battelle Memorial Institute.

                            >>> All Rights Reserved <<<


                                    DISCLAIMER
                                    ----------

            This material was prepared as an account of work sponsored
            by an agency of the United States Government.  Neither the
            United States Government nor the United States Department
            of Energy, nor Battelle, nor any of their employees, MAKES
            ANY WARRANTY, EXPRESS OR IMPLIED, OR ASSUMES ANY LEGAL
            LIABILITY OR RESPONSIBILITY FOR THE ACCURACY, COMPLETENESS,
            OR USEFULNESS OF ANY INFORMATION, APPARATUS, PRODUCT,
            SOFTWARE, OR PROCESS DISCLOSED, OR REPRESENTS THAT ITS USE
            WOULD NOT INFRINGE PRIVATELY OWNED RIGHTS.


                                    LIMITED USE
                                    -----------

            This software (including any documentation) is being made
            available to you for your internal use only, solely for use
            in performance of work directly for the U.S. Federal
            Government or work under contracts with the U.S. Department
            of Energy or other U.S. Federal Government agencies.  This
            software is a version which has not yet been evaluated and
            cleared for commercialization.  Adherence to this notice
            may be necessary for the author, Battelle Memorial
            Institute, to successfully assert copyright in and
            commercialize this software. This software is not intended
            for duplication or distribution to third parties without
            the permission of the Manager of Software Products at
            Pacific Northwest National Laboratory, Richland,
            Washington, 99352.


                                  ACKNOWLEDGMENT
                                  --------------

            This software and its documentation were produced with
            Government support under Contract Number DE-AC05-76RL01830
            awarded by the United States Department of Energy.  The
            Government retains a paid-up non-exclusive, irrevocable
            worldwide license to reproduce, prepare derivative works,
            perform publicly and display publicly by or for the
            Government, including the right to distribute to other
            Government contractors.


           Job information
           ---------------

    hostname      = M-CHM-RKANTERS.local
    program       = nwchem
    date          = Sun Jan 14 16:43:22 2007

    compiled      = Sat Nov 18 18:11:45 EST 2006
    source        = /Users/rkanters/Projects/nwchem-5.0
    nwchem branch = 5.0
    input         = H2O_2.nw
    prefix        = H2O_freq.
    data base     = ./H2O_freq.db
    status        = startup
    nproc         =    2
    time left     =     -1s



           Memory information
           ------------------

    heap      =   13107201 doubles =    100.0 Mbytes
    stack     =   13107201 doubles =    100.0 Mbytes
    global    =   26214400 doubles =    200.0 Mbytes (distinct from heap & stack)
    total     =   52428802 doubles =    400.0 Mbytes
    verify    = yes
    hardfail  = no 


           Directory information
           ---------------------

  0 permanent = .
  0 scratch   = .




                                NWChem Input Module
                                -------------------



 Scaling coordinates for geometry "geometry" by  1.889725989
 (inverse scale =  0.529177249)

 CS  symmetry detected

          ------
          auto-z
          ------


                             Geometry "geometry" -> ""
                             -------------------------

 Output coordinates in angstroms (scale by  1.889725989 to convert to a.u.)

  No.       Tag          Charge          X              Y              Z
 ---- ---------------- ---------- -------------- -------------- --------------
    1 O                    8.0000     0.14142136     0.00000000     0.00000000
    2 H1                   1.0000    -0.56568542     0.70710678     0.00000000
    3 H2                   1.0000    -0.56568542    -0.70710678     0.00000000

      Atomic Mass 
      ----------- 

      O                 15.994910
      H1                 1.007825
      H2                 1.007825


 Effective nuclear repulsion energy (a.u.)       8.8410208052

            Nuclear Dipole moment (a.u.) 
            ----------------------------
        X                 Y               Z
 ---------------- ---------------- ----------------
     0.0000000000     0.0000000000     0.0000000000

      Symmetry information
      --------------------

 Group name             Cs        
 Group number              2
 Group order               2
 No. of unique centers     3

      Symmetry unique atoms

     1    2    3



                                Z-matrix (autoz)
                                -------- 

 Units are Angstrom for bonds and degrees for angles

      Type          Name      I     J     K     L     M      Value
      ----------- --------  ----- ----- ----- ----- ----- ----------
    1 Stretch                  1     2                       1.00000
    2 Stretch                  1     3                       1.00000
    3 Bend                     2     1     3                90.00000


            XYZ format geometry
            -------------------
     3
 geometry
 O                     0.14142136     0.00000000     0.00000000
 H1                   -0.56568542     0.70710678     0.00000000
 H2                   -0.56568542    -0.70710678     0.00000000

 ==============================================================================
                                internuclear distances
 ------------------------------------------------------------------------------
       center one      |      center two      | atomic units |  angstroms
 ------------------------------------------------------------------------------
    2 H1               |   1 O                |     1.88973  |     1.00000
    3 H2               |   1 O                |     1.88973  |     1.00000
 ------------------------------------------------------------------------------
                         number of included internuclear distances:          2
 ==============================================================================



 ==============================================================================
                                 internuclear angles
 ------------------------------------------------------------------------------
        center 1       |       center 2       |       center 3       |  degrees
 ------------------------------------------------------------------------------
    2 H1               |   1 O                |   3 H2               |    90.00
 ------------------------------------------------------------------------------
                            number of included internuclear angles:          1
 ==============================================================================



  library name resolved from: .nwchemrc
  library file name is: </usr/local/nwchem/data/libraries/>
  


 Summary of "ao basis" -> "" (cartesian)
 ------------------------------------------------------------------------------
       Tag                 Description            Shells   Functions and Types
 ---------------- ------------------------------  ------  ---------------------
 O                           sto-3g                  3        5   2s1p
 H*                          sto-3g                   on all atoms 


                      H2O+ : STO-3G UHF geometry optimization
                      ---------------------------------------


                           NWChem Geometry Optimization
                           ----------------------------




                      H2O+ : STO-3G UHF geometry optimization


 maximum gradient threshold         (gmax) =   0.000450
 rms gradient threshold             (grms) =   0.000300
 maximum cartesian step threshold   (xmax) =   0.001800
 rms cartesian step threshold       (xrms) =   0.001200
 fixed trust radius                (trust) =   0.300000
 maximum step size to saddle      (sadstp) =   0.100000
 energy precision                  (eprec) =   1.0D-07
 maximum number of steps          (nptopt) =   20
 initial hessian option           (inhess) =    0
 line search option               (linopt) =    1
 hessian update option            (modupd) =    1
 saddle point option              (modsad) =    0
 initial eigen-mode to follow     (moddir) =    0
 initial variable to follow       (vardir) =    0
 follow first negative mode     (firstneg) =    T
 apply conjugacy                    (opcg) =    F
 source of zmatrix                         =   autoz   


          -------------------
          Energy Minimization
          -------------------


 Names of Z-matrix variables 
    1              2              3         

 Variables with the same non-blank name are constrained to be equal


 Using old Hessian from previous optimization

          --------
          Step   0
          --------


                         Geometry "geometry" -> "geometry"
                         ---------------------------------

 Output coordinates in angstroms (scale by  1.889725989 to convert to a.u.)

  No.       Tag          Charge          X              Y              Z
 ---- ---------------- ---------- -------------- -------------- --------------
    1 O                    8.0000     0.14142136     0.00000000     0.00000000
    2 H1                   1.0000    -0.56568542     0.70710678     0.00000000
    3 H2                   1.0000    -0.56568542    -0.70710678     0.00000000

      Atomic Mass 
      ----------- 

      O                 15.994910
      H1                 1.007825
      H2                 1.007825


 Effective nuclear repulsion energy (a.u.)       8.8410208052

            Nuclear Dipole moment (a.u.) 
            ----------------------------
        X                 Y               Z
 ---------------- ---------------- ----------------
     0.0000000000     0.0000000000     0.0000000000

      Symmetry information
      --------------------

 Group name             Cs        
 Group number              2
 Group order               2
 No. of unique centers     3

      Symmetry unique atoms

     1    2    3

                      Basis "ao basis" -> "ao basis" (cartesian)
                      -----
  O (Oxygen)
  ----------
            Exponent  Coefficients 
       -------------- ---------------------------------------------------------
  1 S  1.30709320E+02  0.154329
  1 S  2.38088610E+01  0.535328
  1 S  6.44360830E+00  0.444635

  2 S  5.03315130E+00 -0.099967
  2 S  1.16959610E+00  0.399513
  2 S  3.80389000E-01  0.700115

  3 P  5.03315130E+00  0.155916
  3 P  1.16959610E+00  0.607684
  3 P  3.80389000E-01  0.391957

  H1 (Hydrogen)
  -------------
            Exponent  Coefficients 
       -------------- ---------------------------------------------------------
  1 S  3.42525091E+00  0.154329
  1 S  6.23913730E-01  0.535328
  1 S  1.68855400E-01  0.444635

  H2 (Hydrogen)
  -------------
            Exponent  Coefficients 
       -------------- ---------------------------------------------------------
  1 S  3.42525091E+00  0.154329
  1 S  6.23913730E-01  0.535328
  1 S  1.68855400E-01  0.444635



 Summary of "ao basis" -> "ao basis" (cartesian)
 ------------------------------------------------------------------------------
       Tag                 Description            Shells   Functions and Types
 ---------------- ------------------------------  ------  ---------------------
 O                           sto-3g                  3        5   2s1p
 H1                          sto-3g                  1        1   1s
 H2                          sto-3g                  1        1   1s


                                 NWChem SCF Module
                                 -----------------


                      H2O+ : STO-3G UHF geometry optimization



  ao basis        = "ao basis"
  functions       =     7
  atoms           =     3
  alpha electrons =     5
  beta  electrons =     4
  charge          =   1.00
  wavefunction    = UHF 
  input vectors   = atomic
  output vectors  = ./H2O_freq.movecs
  use symmetry    = T
  symmetry adapt  = T


 Forming initial guess at       0.4s


 Starting SCF solution at       0.4s



       Final UHF  results 
       ------------------ 

         Total SCF energy =    -74.653754522057
      One electron energy =   -115.830489513683
      Two electron energy =     32.335714186413
 Nuclear repulsion energy =      8.841020805213

                       Sz =      0.5000
                 Sz(Sz+1) =      0.7500
                      S^2 =      0.7566

        Time for solution =      0.3s


                              NWChem Gradients Module
                              -----------------------



                         UHF ENERGY GRADIENTS

    atom               coordinates                        gradient
                 x          y          z           x          y          z
   1 O       0.267248   0.000000   0.000000   -0.005967   0.000000   0.000000
   2 H1     -1.068990   1.336238   0.000000    0.002984  -0.064647   0.000000
   3 H2     -1.068990  -1.336238   0.000000    0.002984   0.064647   0.000000


@ Step       Energy      Delta E   Gmax     Grms     Xrms     Xmax   Walltime
@ ---- ---------------- -------- -------- -------- -------- -------- --------
@    0     -74.65375452  0.0D+00  0.04782  0.04646  0.00000  0.00000      1.7
                                                       ok       ok  



                                Z-matrix (autoz)
                                -------- 

 Units are Angstrom for bonds and degrees for angles

      Type          Name      I     J     K     L     M      Value     Gradient
      ----------- --------  ----- ----- ----- ----- ----- ---------- ----------
    1 Stretch                  1     2                       1.00000   -0.04782
    2 Stretch                  1     3                       1.00000   -0.04782
    3 Bend                     2     1     3                90.00000   -0.04360

 Restricting large step in mode    1 eval= 5.0D-02 step= 8.3D-01 new= 3.0D-01
 Restricting overall step due to large component. alpha=  0.99
                                 NWChem SCF Module
                                 -----------------


                      H2O+ : STO-3G UHF geometry optimization



  ao basis        = "ao basis"
  functions       =     7
  atoms           =     3
  alpha electrons =     5
  beta  electrons =     4
  charge          =   1.00
  wavefunction    = UHF 
  input vectors   = ./H2O_freq.movecs
  output vectors  = ./H2O_freq.movecs
  use symmetry    = T
  symmetry adapt  = T


 Forming initial guess at       1.7s


 Starting SCF solution at       1.7s



       Final UHF  results 
       ------------------ 

         Total SCF energy =    -74.666281981988
      One electron energy =   -115.317026904864
      Two electron energy =     32.209628093807
 Nuclear repulsion energy =      8.441116829070

                       Sz =      0.5000
                 Sz(Sz+1) =      0.7500
                      S^2 =      0.7584

        Time for solution =      0.1s


 Line search: 
     step= 0.99 grad=-2.1D-02 hess= 8.8D-03 energy=    -74.666282 mode=downhill
 new step= 1.22                   predicted energy=    -74.666745

          --------
          Step   1
          --------


                         Geometry "geometry" -> "geometry"
                         ---------------------------------

 Output coordinates in angstroms (scale by  1.889725989 to convert to a.u.)

  No.       Tag          Charge          X              Y              Z
 ---- ---------------- ---------- -------------- -------------- --------------
    1 O                    8.0000     0.11618833     0.00010955     0.00000000
    2 H1                   1.0000    -0.55301318     0.81488827     0.00000000
    3 H2                   1.0000    -0.55312465    -0.81499782     0.00000000

      Atomic Mass 
      ----------- 

      O                 15.994910
      H1                 1.007825
      H2                 1.007825


 Effective nuclear repulsion energy (a.u.)       8.3536712566

            Nuclear Dipole moment (a.u.) 
            ----------------------------
        X                 Y               Z
 ---------------- ---------------- ----------------
    -0.3337845020     0.0014491184     0.0000000000

      Symmetry information
      --------------------

 Group name             Cs        
 Group number              2
 Group order               2
 No. of unique centers     3

      Symmetry unique atoms

     1    2    3

                                 NWChem SCF Module
                                 -----------------


                      H2O+ : STO-3G UHF geometry optimization



  ao basis        = "ao basis"
  functions       =     7
  atoms           =     3
  alpha electrons =     5
  beta  electrons =     4
  charge          =   1.00
  wavefunction    = UHF 
  input vectors   = ./H2O_freq.movecs
  output vectors  = ./H2O_freq.movecs
  use symmetry    = T
  symmetry adapt  = T


 Forming initial guess at       3.1s


 Starting SCF solution at       3.1s



       Final UHF  results 
       ------------------ 

         Total SCF energy =    -74.667005986850
      One electron energy =   -115.205018515315
      Two electron energy =     32.184341271831
 Nuclear repulsion energy =      8.353671256633

                       Sz =      0.5000
                 Sz(Sz+1) =      0.7500
                      S^2 =      0.7589

        Time for solution =      0.9s


                              NWChem Gradients Module
                              -----------------------



                         UHF ENERGY GRADIENTS

    atom               coordinates                        gradient
                 x          y          z           x          y          z
   1 O       0.219564   0.000207   0.000000    0.043022   0.000232   0.000000
   2 H1     -1.045043   1.539916   0.000000   -0.021420   0.004268   0.000000
   3 H2     -1.045254  -1.540123   0.000000   -0.021602  -0.004500   0.000000


  Step       Energy      Delta E   Gmax     Grms     Xrms     Xmax   Walltime
  ---- ---------------- -------- -------- -------- -------- -------- --------
@    1     -74.66700599 -1.3D-02  0.01719  0.01627  0.09846  0.20379      5.4
                                                                    



                                Z-matrix (autoz)
                                -------- 

 Units are Angstrom for bonds and degrees for angles

      Type          Name      I     J     K     L     M      Value     Gradient
      ----------- --------  ----- ----- ----- ----- ----- ---------- ----------
    1 Stretch                  1     2                       1.05437    0.01689
    2 Stretch                  1     3                       1.05469    0.01719
    3 Bend                     2     1     3               101.21213   -0.01460

                                 NWChem SCF Module
                                 -----------------


                      H2O+ : STO-3G UHF geometry optimization



  ao basis        = "ao basis"
  functions       =     7
  atoms           =     3
  alpha electrons =     5
  beta  electrons =     4
  charge          =   1.00
  wavefunction    = UHF 
  input vectors   = ./H2O_freq.movecs
  output vectors  = ./H2O_freq.movecs
  use symmetry    = T
  symmetry adapt  = T


 Forming initial guess at       5.5s


 Starting SCF solution at       5.5s



       Final UHF  results 
       ------------------ 

         Total SCF energy =    -74.669724175671
      One electron energy =   -115.518716877226
      Two electron energy =     32.317901152831
 Nuclear repulsion energy =      8.531091548724

                       Sz =      0.5000
                 Sz(Sz+1) =      0.7500
                      S^2 =      0.7575

        Time for solution =      0.3s


 Line search: 
     step= 1.00 grad=-5.5D-03 hess= 2.7D-03 energy=    -74.669724 mode=accept  
 new step= 1.00                   predicted energy=    -74.669724

          --------
          Step   2
          --------


                         Geometry "geometry" -> "geometry"
                         ---------------------------------

 Output coordinates in angstroms (scale by  1.889725989 to convert to a.u.)

  No.       Tag          Charge          X              Y              Z
 ---- ---------------- ---------- -------------- -------------- --------------
    1 O                    8.0000     0.06726359    -0.00005319     0.00000000
    2 H1                   1.0000    -0.52861103     0.84076022     0.00000000
    3 H2                   1.0000    -0.52860205    -0.84070704     0.00000000

      Atomic Mass 
      ----------- 

      O                 15.994910
      H1                 1.007825
      H2                 1.007825


 Effective nuclear repulsion energy (a.u.)       8.5310915487

            Nuclear Dipole moment (a.u.) 
            ----------------------------
        X                 Y               Z
 ---------------- ---------------- ----------------
    -0.9809650374    -0.0007035735     0.0000000000

      Symmetry information
      --------------------

 Group name             Cs        
 Group number              2
 Group order               2
 No. of unique centers     3

      Symmetry unique atoms

     1    2    3

                                 NWChem SCF Module
                                 -----------------


                      H2O+ : STO-3G UHF geometry optimization



  ao basis        = "ao basis"
  functions       =     7
  atoms           =     3
  alpha electrons =     5
  beta  electrons =     4
  charge          =   1.00
  wavefunction    = UHF 
  input vectors   = ./H2O_freq.movecs
  output vectors  = ./H2O_freq.movecs
  use symmetry    = T
  symmetry adapt  = T


  The SCF is already converged 

         Total SCF energy =    -74.669724175671

                              NWChem Gradients Module
                              -----------------------



                         UHF ENERGY GRADIENTS

    atom               coordinates                        gradient
                 x          y          z           x          y          z
   1 O       0.127110  -0.000101   0.000000   -0.001574  -0.000115   0.000000
   2 H1     -0.998930   1.588806   0.000000    0.000746  -0.002574   0.000000
   3 H2     -0.998913  -1.588706   0.000000    0.000827   0.002689   0.000000


  Step       Energy      Delta E   Gmax     Grms     Xrms     Xmax   Walltime
  ---- ---------------- -------- -------- -------- -------- -------- --------
@    2     -74.66972418 -2.7D-03  0.00267  0.00219  0.04290  0.09270      6.7
                                                                    



                                Z-matrix (autoz)
                                -------- 

 Units are Angstrom for bonds and degrees for angles

      Type          Name      I     J     K     L     M      Value     Gradient
      ----------- --------  ----- ----- ----- ----- ----- ---------- ----------
    1 Stretch                  1     2                       1.03055   -0.00253
    2 Stretch                  1     3                       1.03041   -0.00267
    3 Bend                     2     1     3               109.34577   -0.00091

                                 NWChem SCF Module
                                 -----------------


                      H2O+ : STO-3G UHF geometry optimization



  ao basis        = "ao basis"
  functions       =     7
  atoms           =     3
  alpha electrons =     5
  beta  electrons =     4
  charge          =   1.00
  wavefunction    = UHF 
  input vectors   = ./H2O_freq.movecs
  output vectors  = ./H2O_freq.movecs
  use symmetry    = T
  symmetry adapt  = T


 Forming initial guess at       6.8s


 Starting SCF solution at       6.8s



       Final UHF  results 
       ------------------ 

         Total SCF energy =    -74.669742712456
      One electron energy =   -115.494828470810
      Two electron energy =     32.312557126797
 Nuclear repulsion energy =      8.512528631556

                       Sz =      0.5000
                 Sz(Sz+1) =      0.7500
                      S^2 =      0.7576

        Time for solution =      0.1s


 Line search: 
     step= 1.00 grad=-3.2D-05 hess= 1.4D-05 energy=    -74.669743 mode=downhill
 new step= 1.17                   predicted energy=    -74.669743

          --------
          Step   3
          --------


                         Geometry "geometry" -> "geometry"
                         ---------------------------------

 Output coordinates in angstroms (scale by  1.889725989 to convert to a.u.)

  No.       Tag          Charge          X              Y              Z
 ---- ---------------- ---------- -------------- -------------- --------------
    1 O                    8.0000     0.06611053     0.00003507     0.00000000
    2 H1                   1.0000    -0.52800330     0.84503555     0.00000000
    3 H2                   1.0000    -0.52805672    -0.84507062     0.00000000

      Atomic Mass 
      ----------- 

      O                 15.994910
      H1                 1.007825
      H2                 1.007825


 Effective nuclear repulsion energy (a.u.)       8.5093490128

            Nuclear Dipole moment (a.u.) 
            ----------------------------
        X                 Y               Z
 ---------------- ---------------- ----------------
    -0.9962177824     0.0004639409     0.0000000000

      Symmetry information
      --------------------

 Group name             Cs        
 Group number              2
 Group order               2
 No. of unique centers     3

      Symmetry unique atoms

     1    2    3

                                 NWChem SCF Module
                                 -----------------


                      H2O+ : STO-3G UHF geometry optimization



  ao basis        = "ao basis"
  functions       =     7
  atoms           =     3
  alpha electrons =     5
  beta  electrons =     4
  charge          =   1.00
  wavefunction    = UHF 
  input vectors   = ./H2O_freq.movecs
  output vectors  = ./H2O_freq.movecs
  use symmetry    = T
  symmetry adapt  = T


 Forming initial guess at       8.1s


 Starting SCF solution at       8.1s



       Final UHF  results 
       ------------------ 

         Total SCF energy =    -74.669743133585
      One electron energy =   -115.490720473674
      Two electron energy =     32.311628327296
 Nuclear repulsion energy =      8.509349012793

                       Sz =      0.5000
                 Sz(Sz+1) =      0.7500
                      S^2 =      0.7576

        Time for solution =      1.1s


                              NWChem Gradients Module
                              -----------------------



                         UHF ENERGY GRADIENTS

    atom               coordinates                        gradient
                 x          y          z           x          y          z
   1 O       0.124931   0.000066   0.000000    0.000237   0.000098   0.000000
   2 H1     -0.997782   1.596886   0.000000   -0.000084  -0.000010   0.000000
   3 H2     -0.997883  -1.596952   0.000000   -0.000153  -0.000087   0.000000


  Step       Energy      Delta E   Gmax     Grms     Xrms     Xmax   Walltime
  ---- ---------------- -------- -------- -------- -------- -------- --------
@    3     -74.66974313 -1.9D-05  0.00016  0.00010  0.00395  0.00825     11.7
                                     ok       ok                    



                                Z-matrix (autoz)
                                -------- 

 Units are Angstrom for bonds and degrees for angles

      Type          Name      I     J     K     L     M      Value     Gradient
      ----------- --------  ----- ----- ----- ----- ----- ---------- ----------
    1 Stretch                  1     2                       1.03296    0.00004
    2 Stretch                  1     3                       1.03307    0.00016
    3 Bend                     2     1     3               109.77937   -0.00008

                                 NWChem SCF Module
                                 -----------------


                      H2O+ : STO-3G UHF geometry optimization



  ao basis        = "ao basis"
  functions       =     7
  atoms           =     3
  alpha electrons =     5
  beta  electrons =     4
  charge          =   1.00
  wavefunction    = UHF 
  input vectors   = ./H2O_freq.movecs
  output vectors  = ./H2O_freq.movecs
  use symmetry    = T
  symmetry adapt  = T


 Forming initial guess at      11.7s


 Starting SCF solution at      11.7s



       Final UHF  results 
       ------------------ 

         Total SCF energy =    -74.669743222728
      One electron energy =   -115.492268520784
      Two electron energy =     32.312348367827
 Nuclear repulsion energy =      8.510176930228

                       Sz =      0.5000
                 Sz(Sz+1) =      0.7500
                      S^2 =      0.7576

        Time for solution =      0.2s


 Line search: 
     step= 1.00 grad=-1.9D-07 hess= 9.6D-08 energy=    -74.669743 mode=accept  
 new step= 1.00                   predicted energy=    -74.669743

          --------
          Step   4
          --------


                         Geometry "geometry" -> "geometry"
                         ---------------------------------

 Output coordinates in angstroms (scale by  1.889725989 to convert to a.u.)

  No.       Tag          Charge          X              Y              Z
 ---- ---------------- ---------- -------------- -------------- --------------
    1 O                    8.0000     0.06583203    -0.00003053     0.00000000
    2 H1                   1.0000    -0.52788710     0.84522544     0.00000000
    3 H2                   1.0000    -0.52789442    -0.84519491     0.00000000

      Atomic Mass 
      ----------- 

      O                 15.994910
      H1                 1.007825
      H2                 1.007825


 Effective nuclear repulsion energy (a.u.)       8.5101769302

            Nuclear Dipole moment (a.u.) 
            ----------------------------
        X                 Y               Z
 ---------------- ---------------- ----------------
    -0.9999017820    -0.0004038435     0.0000000000

      Symmetry information
      --------------------

 Group name             Cs        
 Group number              2
 Group order               2
 No. of unique centers     3

      Symmetry unique atoms

     1    2    3

                                 NWChem SCF Module
                                 -----------------


                      H2O+ : STO-3G UHF geometry optimization



  ao basis        = "ao basis"
  functions       =     7
  atoms           =     3
  alpha electrons =     5
  beta  electrons =     4
  charge          =   1.00
  wavefunction    = UHF 
  input vectors   = ./H2O_freq.movecs
  output vectors  = ./H2O_freq.movecs
  use symmetry    = T
  symmetry adapt  = T


  The SCF is already converged 

         Total SCF energy =    -74.669743222728

                              NWChem Gradients Module
                              -----------------------



                         UHF ENERGY GRADIENTS

    atom               coordinates                        gradient
                 x          y          z           x          y          z
   1 O       0.124405  -0.000058   0.000000    0.000010  -0.000059   0.000000
   2 H1     -0.997562   1.597244   0.000000   -0.000026   0.000032   0.000000
   3 H2     -0.997576  -1.597187   0.000000    0.000016   0.000027   0.000000


  Step       Energy      Delta E   Gmax     Grms     Xrms     Xmax   Walltime
  ---- ---------------- -------- -------- -------- -------- -------- --------
@    4     -74.66974322 -8.9D-08  0.00004  0.00003  0.00026  0.00053     13.0
                                     ok       ok       ok       ok  



                                Z-matrix (autoz)
                                -------- 

 Units are Angstrom for bonds and degrees for angles

      Type          Name      I     J     K     L     M      Value     Gradient
      ----------- --------  ----- ----- ----- ----- ----- ---------- ----------
    1 Stretch                  1     2                       1.03294    0.00004
    2 Stretch                  1     3                       1.03287   -0.00003
    3 Bend                     2     1     3               109.82731    0.00000


      ----------------------
      Optimization converged
      ----------------------


  Step       Energy      Delta E   Gmax     Grms     Xrms     Xmax   Walltime
  ---- ---------------- -------- -------- -------- -------- -------- --------
@    4     -74.66974322 -8.9D-08  0.00004  0.00003  0.00026  0.00053     13.0
                                     ok       ok       ok       ok  



                                Z-matrix (autoz)
                                -------- 

 Units are Angstrom for bonds and degrees for angles

      Type          Name      I     J     K     L     M      Value     Gradient
      ----------- --------  ----- ----- ----- ----- ----- ---------- ----------
    1 Stretch                  1     2                       1.03294    0.00004
    2 Stretch                  1     3                       1.03287   -0.00003
    3 Bend                     2     1     3               109.82731    0.00000



                         Geometry "geometry" -> "geometry"
                         ---------------------------------

 Output coordinates in angstroms (scale by  1.889725989 to convert to a.u.)

  No.       Tag          Charge          X              Y              Z
 ---- ---------------- ---------- -------------- -------------- --------------
    1 O                    8.0000     0.06583203    -0.00003053     0.00000000
    2 H1                   1.0000    -0.52788710     0.84522544     0.00000000
    3 H2                   1.0000    -0.52789442    -0.84519491     0.00000000

      Atomic Mass 
      ----------- 

      O                 15.994910
      H1                 1.007825
      H2                 1.007825


 Effective nuclear repulsion energy (a.u.)       8.5101769302

            Nuclear Dipole moment (a.u.) 
            ----------------------------
        X                 Y               Z
 ---------------- ---------------- ----------------
    -0.9999017820    -0.0004038435     0.0000000000

      Symmetry information
      --------------------

 Group name             Cs        
 Group number              2
 Group order               2
 No. of unique centers     3

      Symmetry unique atoms

     1    2    3


                Final and change from initial internal coordinates
                --------------------------------------------------



                                Z-matrix (autoz)
                                -------- 

 Units are Angstrom for bonds and degrees for angles

      Type          Name      I     J     K     L     M      Value       Change
      ----------- --------  ----- ----- ----- ----- ----- ---------- ----------
    1 Stretch                  1     2                       1.03294    0.03294
    2 Stretch                  1     3                       1.03287    0.03287
    3 Bend                     2     1     3               109.82731   19.82731

 ==============================================================================
                                internuclear distances
 ------------------------------------------------------------------------------
       center one      |      center two      | atomic units |  angstroms
 ------------------------------------------------------------------------------
    2 H1               |   1 O                |     1.95197  |     1.03294
    3 H2               |   1 O                |     1.95184  |     1.03287
 ------------------------------------------------------------------------------
                         number of included internuclear distances:          2
 ==============================================================================



 ==============================================================================
                                 internuclear angles
 ------------------------------------------------------------------------------
        center 1       |       center 2       |       center 3       |  degrees
 ------------------------------------------------------------------------------
    2 H1               |   1 O                |   3 H2               |   109.83
 ------------------------------------------------------------------------------
                            number of included internuclear angles:          1
 ==============================================================================




 Task  times  cpu:        3.6s     wall:       12.6s


                                NWChem Input Module
                                -------------------




                   NWChem Nuclear Hessian and Frequency Analysis
                   ---------------------------------------------



                              NWChem Analytic Hessian
                              -----------------------

                                 NWChem SCF Module
                                 -----------------


                      H2O+ : STO-3G UHF geometry optimization



  ao basis        = "ao basis"
  functions       =     7
  atoms           =     3
  alpha electrons =     5
  beta  electrons =     4
  charge          =   1.00
  wavefunction    = UHF 
  input vectors   = ./H2O_freq.movecs
  output vectors  = ./H2O_freq.movecs
  use symmetry    = F
  symmetry adapt  = F


 Forming initial guess at      13.0s


 Starting SCF solution at      13.0s



       Final UHF  results 
       ------------------ 

         Total SCF energy =    -74.669743222734
      One electron energy =   -115.492268388014
      Two electron energy =     32.312348235052
 Nuclear repulsion energy =      8.510176930228

                       Sz =      0.5000
                 Sz(Sz+1) =      0.7500
                      S^2 =      0.7576

        Time for solution =      0.0s


  stpr_wrt_fd_from_sq: overwrite of existing file:./H2O_freq.hess
 stpr_wrt_fd_dipole: overwrite of existing file./H2O_freq.fd_ddipole

 HESSIAN: the one electron contributions are done in       0.0s


 HESSIAN: 2-el 1st deriv. term done in                     0.0s


 HESSIAN: 2-el 2nd deriv. term done in                     0.0s

  stpr_wrt_fd_from_sq: overwrite of existing file:./H2O_freq.hess
 stpr_wrt_fd_dipole: overwrite of existing file./H2O_freq.fd_ddipole

 HESSIAN: the two electron contributions are done in       0.1s

                                NWChem CPHF Module
                                ------------------


    scftype = UHF 
     nalpha =    5
      nbeta =    4
  variables =       22
  num. vecs =        9
  tolerance =   1.0D-04
  max. iter =  100



Iterative solution of linear equations
  No. of variables       22
  No. of equations        9
  Maximum subspace       90
       Convergence  1.0D-04
        Start time     13.2


   iter   nsub   residual    time
   ----  ------  --------  ---------
     1      9    1.24D-01      13.2
     2     18    7.91D-02      13.2
     3     27    3.20D-02      13.3
     4     36    2.05D-03      13.3
     5     45    1.16D-11      13.3
 HESSIAN: the CPHF contributions are done
  stpr_wrt_fd_from_sq: overwrite of existing file:./H2O_freq.hess
 stpr_wrt_fd_dipole: overwrite of existing file./H2O_freq.fd_ddipole
 HESSIAN: the Hessian is done


  Vibrational analysis via the FX method 

  See chapter 2 in "Molecular Vibrations" by Wilson, Decius and Cross

  Vib: Default input used 

  Nuclear Hessian passed symmetry test 



 ---------------------------- Atom information ----------------------------
     atom    #        X              Y              Z            mass
 --------------------------------------------------------------------------
    O        1  1.2440450D-01 -5.7691935D-05  0.0000000D+00  1.5994910D+01
    H        2 -9.9756198D-01  1.5972445D+00  0.0000000D+00  1.0078250D+00
    H        3 -9.9757581D-01 -1.5971868D+00  0.0000000D+00  1.0078250D+00
 --------------------------------------------------------------------------




          ----------------------------------------------------
          MASS-WEIGHTED NUCLEAR HESSIAN (Hartree/Bohr/Bohr/Kamu)
          ----------------------------------------------------


              1           2           3           4           5           6           7           8           9
   ----- ----- ----- ----- -----
    1   2.72381D+01
    2   7.86856D-03 4.52862D+01
    3  -1.16868D-13 1.25685D-14 5.36227D-04
    4  -5.42462D+01 6.33491D+01 3.12307D-14 1.96697D+02
    5   4.90352D+01-9.01913D+01-2.66767D-14-2.23857D+02 3.80280D+02
    6   2.48285D-13-3.52961D-14-5.68029D-03-5.65685D-13 5.26919D-13 2.14180D-02
    7  -5.42653D+01-6.33805D+01-1.89213D-14 1.94096D+01 2.85104D+01 1.42153D-14 1.96773D+02
    8  -4.90665D+01-9.02202D+01-8.33363D-15-2.85137D+01-2.09754D+01-7.21411D-15 2.23985D+02 3.80395D+02
    9   2.16463D-13-1.49974D-14 3.54406D-03-4.83808D-13 3.98457D-13 1.21119D-03-3.78538D-13-3.38710D-13-1.53300D-02



          -------------------------------------------------
          NORMAL MODE EIGENVECTORS IN CARTESIAN COORDINATES
          -------------------------------------------------
                 (Frequencies expressed in cm-1)

                    1           2           3           4           5           6
 
 Frequency        -20.72        0.00        0.00        0.00        8.50       24.58
 
           1     0.00000     0.13852     0.00000     0.19062     0.00001     0.00000
           2     0.00000     0.19062     0.00000    -0.13852    -0.04617     0.00000
           3    -0.05687     0.00000     0.23563     0.00000     0.00000    -0.06134
           4     0.00000     0.13852     0.00000     0.19062     0.58725     0.00000
           5     0.00000     0.19062     0.00000    -0.13852     0.36632     0.00000
           6    -0.06530     0.00000     0.23563     0.00000     0.00000     0.96563
           7     0.00000     0.13852     0.00000     0.19061    -0.58741     0.00000
           8     0.00000     0.19062     0.00000    -0.13852     0.36648     0.00000
           9     0.96781     0.00000     0.23563     0.00000     0.00000     0.00794

                    7           8           9
 
 Frequency       1629.34     3792.24     3921.53
 
           1    -0.06887    -0.04747    -0.00015
           2     0.00000     0.00022    -0.06975
           3     0.00000     0.00000     0.00000
           4     0.54664     0.37789    -0.38760
           5     0.39976    -0.58168     0.55169
           6     0.00000     0.00000     0.00000
           7     0.54642     0.37549     0.38999
           8    -0.39968     0.57821     0.55528
           9     0.00000     0.00000     0.00000



 ----------------------------------------------------------------------------
 Normal Eigenvalue ||         Derivative Dipole Moments (debye/angs)
  Mode   [cm**-1]  ||      [d/dqX]             [d/dqY]           [d/dqZ]
 ------ ---------- || ------------------ ------------------ -----------------
    1      -20.716 ||       0.000               0.000             2.312
    2       -0.004 ||       0.665               0.916             0.000
    3       -0.004 ||       0.000               0.000             1.132
    4        0.001 ||       0.916              -0.665             0.000
    5        8.501 ||       0.000               1.877             0.000
    6       24.581 ||       0.000               0.000             2.494
    7     1629.336 ||       1.891               0.000             0.000
    8     3792.241 ||       1.090              -0.010             0.000
    9     3921.526 ||       0.003               3.049             0.000
 ----------------------------------------------------------------------------



  
  
 ----------------------------------------------------------------------------
 Normal Eigenvalue ||                 Infra Red Intensities
  Mode   [cm**-1]  || [atomic units] [(debye/angs)**2] [(KM/mol)] [arbitrary]
 ------ ---------- || -------------- ----------------- ---------- -----------
    1      -20.716 ||    0.231663           5.345       225.837      14.581
    2       -0.004 ||    0.055523           1.281        54.127       3.495
    3       -0.004 ||    0.055523           1.281        54.127       3.495
    4        0.001 ||    0.055523           1.281        54.127       3.495
    5        8.501 ||    0.152728           3.524       148.887       9.613
    6       24.581 ||    0.269588           6.220       262.808      16.968
    7     1629.336 ||    0.154989           3.576       151.091       9.755
    8     3792.241 ||    0.051456           1.187        50.161       3.239
    9     3921.526 ||    0.402932           9.296       392.799      25.361
 ----------------------------------------------------------------------------





        Vibrational analysis via the FX method 
  --- with translations and rotations projected out ---
  --- via the Eckart algorithm                      ---
 Projected Nuclear Hessian trans-rot subspace norm:1.4079D-32
                         (should be close to zero!) 


From the projected analysis 
The Zero-Point Energy (Kcal/mol) =          13.36064329

 center of mass
 --------------
 x =  -0.00116104 y =  -0.00004801 z =   0.00000000

 moments of inertia (a.u.)
 ------------------
           5.142120227935           0.000151537209           0.000000000000
           0.000151537209           2.253382013844           0.000000000000
           0.000000000000           0.000000000000           7.395502241779

 Rotational Constants
 --------------------
 A=  26.715477 cm-1  ( 38.436754 K)
 B=  11.707267 cm-1  ( 16.843770 K)
 C=   8.140106 cm-1  ( 11.711536 K)


 Temperature                      =   298.15K

 Zero-Point correction to Energy  =   13.350 kcal/mol  (  0.021275 au)
 Thermal correction to Energy     =   15.129 kcal/mol  (  0.024109 au)
 Thermal correction to Enthalpy   =   15.721 kcal/mol  (  0.025053 au)

 Total Entropy                    =   46.819 cal/mol-K
   - Translational                =   34.593 cal/mol-K (mol. weight =  18.0106)
   - Rotational                   =   12.220 cal/mol-K (symmetry #  =        1)
   - Vibrational                  =    0.007 cal/mol-K

 Cv (constant volume heat capacity) =    6.006 cal/mol-K
   - Translational                  =    2.979 cal/mol-K
   - Rotational                     =    2.979 cal/mol-K
   - Vibrational                    =    0.047 cal/mol-K



          -------------------------------------------------
          NORMAL MODE EIGENVECTORS IN CARTESIAN COORDINATES
          -------------------------------------------------
             (Projected Frequencies expressed in cm-1)

                    1           2           3           4           5           6
 
 P.Frequency        0.00        0.00        0.00        0.00        0.00        0.00
 
           1     0.03269    -0.02085     0.00000     0.00000     0.00000     0.23242
           2     0.08844     0.22310     0.00000     0.00000     0.00000     0.00757
           3     0.00000     0.00000     0.25004     0.00000     0.00000     0.00000
           4     0.52096    -0.33268     0.00000     0.00000     0.00000     0.13577
           5     0.43141     0.00407     0.00000     0.00000     0.00000    -0.06032
           6     0.00000     0.00000     0.00000     0.00000     0.99611     0.00000
           7    -0.45552     0.29096     0.00000     0.00000     0.00000     0.32906
           8     0.43141     0.00406     0.00000     0.00000     0.00000    -0.06032
           9     0.00000     0.00000     0.00000     0.99611     0.00000     0.00000

                    7           8           9
 
 P.Frequency     1629.34     3792.24     3921.53
 
           1    -0.06887    -0.04747    -0.00015
           2     0.00001     0.00022    -0.06975
           3     0.00000     0.00000     0.00000
           4     0.54653     0.37789    -0.38759
           5     0.39968    -0.58168     0.55169
           6     0.00000     0.00000     0.00000
           7     0.54653     0.37549     0.39000
           8    -0.39976     0.57821     0.55528
           9     0.00000     0.00000     0.00000



 ----------------------------------------------------------------------------
 Normal Eigenvalue ||    Projected Derivative Dipole Moments (debye/angs)
  Mode   [cm**-1]  ||      [d/dqX]             [d/dqY]           [d/dqZ]
 ------ ---------- || ------------------ ------------------ -----------------
    1        0.000 ||       0.157               2.170             0.000
    2        0.000 ||      -0.100              -0.043             0.000
    3        0.000 ||       0.000               0.000            -0.071
    4        0.000 ||       0.000               0.000             2.534
    5        0.000 ||       0.000               0.000             2.534
    6        0.000 ||       1.116              -0.309             0.000
    7     1629.336 ||       1.891               0.000             0.000
    8     3792.241 ||       1.090              -0.010             0.000
    9     3921.531 ||       0.003               3.049             0.000
 ----------------------------------------------------------------------------



  
  
 ----------------------------------------------------------------------------
 Normal Eigenvalue ||           Projected Infra Red Intensities
  Mode   [cm**-1]  || [atomic units] [(debye/angs)**2] [(KM/mol)] [arbitrary]
 ------ ---------- || -------------- ----------------- ---------- -----------
    1        0.000 ||    0.205105           4.732       199.946      12.909
    2        0.000 ||    0.000514           0.012         0.501       0.032
    3        0.000 ||    0.000219           0.005         0.213       0.014
    4        0.000 ||    0.278276           6.420       271.278      17.515
    5        0.000 ||    0.278279           6.420       271.280      17.515
    6        0.000 ||    0.058156           1.342        56.694       3.660
    7     1629.336 ||    0.154989           3.576       151.091       9.755
    8     3792.241 ||    0.051456           1.187        50.161       3.239
    9     3921.531 ||    0.402931           9.296       392.797      25.361
 ----------------------------------------------------------------------------



 vib:animation  F

 Task  times  cpu:        0.3s     wall:        0.4s


                                NWChem Input Module
                                -------------------


  library name resolved from: .nwchemrc
  library file name is: </usr/local/nwchem/data/libraries/>
  


 Summary of "ao basis" -> "" (cartesian)
 ------------------------------------------------------------------------------
       Tag                 Description            Shells   Functions and Types
 ---------------- ------------------------------  ------  ---------------------
 O                          6-31g**                  6       15   3s2p1d
 H*                         6-31g**                   on all atoms 


                     H2O+ : 6-31g** UMP2 geometry optimization
                     -----------------------------------------


                           NWChem Geometry Optimization
                           ----------------------------




                     H2O+ : 6-31g** UMP2 geometry optimization


 maximum gradient threshold         (gmax) =   0.000450
 rms gradient threshold             (grms) =   0.000300
 maximum cartesian step threshold   (xmax) =   0.001800
 rms cartesian step threshold       (xrms) =   0.001200
 fixed trust radius                (trust) =   0.300000
 maximum step size to saddle      (sadstp) =   0.100000
 energy precision                  (eprec) =   1.0D-07
 maximum number of steps          (nptopt) =   20
 initial hessian option           (inhess) =    0
 line search option               (linopt) =    1
 hessian update option            (modupd) =    1
 saddle point option              (modsad) =    0
 initial eigen-mode to follow     (moddir) =    0
 initial variable to follow       (vardir) =    0
 follow first negative mode     (firstneg) =    T
 apply conjugacy                    (opcg) =    F
 source of zmatrix                         =   autoz   


          -------------------
          Energy Minimization
          -------------------


 Names of Z-matrix variables 
    1              2              3         

 Variables with the same non-blank name are constrained to be equal


 Using old Hessian from previous optimization

          --------
          Step   0
          --------


                         Geometry "geometry" -> "geometry"
                         ---------------------------------

 Output coordinates in angstroms (scale by  1.889725989 to convert to a.u.)

  No.       Tag          Charge          X              Y              Z
 ---- ---------------- ---------- -------------- -------------- --------------
    1 O                    8.0000     0.06583203    -0.00003053     0.00000000
    2 H1                   1.0000    -0.52788710     0.84522544     0.00000000
    3 H2                   1.0000    -0.52789442    -0.84519491     0.00000000

      Atomic Mass 
      ----------- 

      O                 15.994910
      H1                 1.007825
      H2                 1.007825


 Effective nuclear repulsion energy (a.u.)       8.5101769302

            Nuclear Dipole moment (a.u.) 
            ----------------------------
        X                 Y               Z
 ---------------- ---------------- ----------------
    -0.9999017820    -0.0004038435     0.0000000000

      Symmetry information
      --------------------

 Group name             Cs        
 Group number              2
 Group order               2
 No. of unique centers     3

      Symmetry unique atoms

     1    2    3

                      Basis "ao basis" -> "ao basis" (cartesian)
                      -----
  O (Oxygen)
  ----------
            Exponent  Coefficients 
       -------------- ---------------------------------------------------------
  1 S  5.48467170E+03  0.001831
  1 S  8.25234950E+02  0.013950
  1 S  1.88046960E+02  0.068445
  1 S  5.29645000E+01  0.232714
  1 S  1.68975700E+01  0.470193
  1 S  5.79963530E+00  0.358521

  2 S  1.55396160E+01 -0.110778
  2 S  3.59993360E+00 -0.148026
  2 S  1.01376180E+00  1.130767

  3 P  1.55396160E+01  0.070874
  3 P  3.59993360E+00  0.339753
  3 P  1.01376180E+00  0.727159

  4 S  2.70005800E-01  1.000000

  5 P  2.70005800E-01  1.000000

  6 D  8.00000000E-01  1.000000

  H1 (Hydrogen)
  -------------
            Exponent  Coefficients 
       -------------- ---------------------------------------------------------
  1 S  1.87311370E+01  0.033495
  1 S  2.82539370E+00  0.234727
  1 S  6.40121700E-01  0.813757

  2 S  1.61277800E-01  1.000000

  3 P  1.10000000E+00  1.000000

  H2 (Hydrogen)
  -------------
            Exponent  Coefficients 
       -------------- ---------------------------------------------------------
  1 S  1.87311370E+01  0.033495
  1 S  2.82539370E+00  0.234727
  1 S  6.40121700E-01  0.813757

  2 S  1.61277800E-01  1.000000

  3 P  1.10000000E+00  1.000000



 Summary of "ao basis" -> "ao basis" (cartesian)
 ------------------------------------------------------------------------------
       Tag                 Description            Shells   Functions and Types
 ---------------- ------------------------------  ------  ---------------------
 O                          6-31g**                  6       15   3s2p1d
 H1                         6-31g**                  3        5   2s1p
 H2                         6-31g**                  3        5   2s1p


                                 NWChem SCF Module
                                 -----------------


                     H2O+ : 6-31g** UMP2 geometry optimization



  ao basis        = "ao basis"
  functions       =    25
  atoms           =     3
  alpha electrons =     5
  beta  electrons =     4
  charge          =   1.00
  wavefunction    = UHF 
  input vectors   = ./H2O_freq.movecs
  output vectors  = ./H2O_freq.movecs
  use symmetry    = T
  symmetry adapt  = T


 Forming initial guess at      13.4s


 !! nbf/nmo/basis-name mismatch 
           nbf=  25 nbf_file=   7
           nmo=  25nmo_file=   7
           basis="ao basis" basis_file="ao basis"

  Either an incorrect movecs file was specified, or linear dependence has changed,
  or the basis name was changed. 

  Load of old vectors failed.   Forcing atomic density guess


 Starting SCF solution at      13.5s



       Final UHF  results 
       ------------------ 

         Total SCF energy =    -75.624185583828
      One electron energy =   -116.982685044255
      Two electron energy =     32.848322530199
 Nuclear repulsion energy =      8.510176930228

                       Sz =      0.5000
                 Sz(Sz+1) =      0.7500
                      S^2 =      0.7580

        Time for solution =      0.8s


                   NWChem MP2 Semi-direct Energy/Gradient Module
                   ---------------------------------------------


                     H2O+ : 6-31g** UMP2 geometry optimization


  Basis functions       =     25
  Molecular orbitals    =     25
  Frozen core           =      0
  Frozen virtuals       =      0
  Active alpha occupied =      5
  Active beta occupied  =      4
  Active alpha virtual  =     20
  Active beta virtual   =     21
  Use MO symmetry       = T
  Use skeleton AO sym   = T

  AO/Fock/Back tols     =   1.0D-09  1.0D-09  1.0D-09

 GA uses MA = F    GA memory limited = T

 Available: 
  local mem=  2.62D+07
 global mem=  2.10D+08
 local disk=  2.00D+09
   1 passes of   5:        1272900                       5584                     29657.

 Semi-direct pass number   1 of   1  for UHF alpha       at       15.6s
Node 0 wrote      0.1 Mb in      0.0 s     Agg I/O rate:   168.5 Mb/s
 Done moints_semi at       15.7s
 Done maket at       15.7s
 Done pijab at       15.7s
 Done wijab at       15.8s
 Done lai at       15.8s
 Done nonsep at       16.1s
 Done multipass loop at       16.1s

 GA uses MA = F    GA memory limited = T

 Available: 
  local mem=  2.62D+07
 global mem=  2.10D+08
 local disk=  2.00D+09
   1 passes of   4:        1271957                       5682                     24476.

 Semi-direct pass number   1 of   1  for UHF beta        at       17.2s
Node 0 wrote      0.1 Mb in      0.0 s     Agg I/O rate:   174.8 Mb/s
 Done moints_semi at       17.3s
 Done maket at       17.3s
 Done pijab at       17.3s
 Done wijab at       17.3s
 Done lai at       17.3s
 Done nonsep at       17.6s
 Done multipass loop at       17.6s


          -------------------------------------------
          SCF energy                 -75.624185583828
          Correlation energy          -0.150867007680
          Singlet pairs                0.000000000000
          Triplet pairs                0.000000000000
          Total MP2 energy           -75.775052591507
          -------------------------------------------

                                NWChem CPHF Module
                                ------------------


    scftype = UHF 
     nalpha =    5
      nbeta =    4
  variables =      184
  tolerance =   1.0D-04
  max. iter =  100


            ----- linear solve (tol: 1.0E-04 prod-acc: 3.1E-10) -----

               iter nbas    rnorm     rnorm-scal   ratio     time
               ---- ---- ----------- ----------- --------- -------
                  1    1  1.3188E-02  3.1208E-01    0.0000     6.0
                  2    2  4.4472E-03  1.0524E-01    0.3372     6.0
                  3    3  1.5641E-03  3.7013E-02    0.3517     6.1
                  4    4  4.0344E-04  9.5470E-03    0.2579     6.1
                  5    5  6.7309E-05  1.5928E-03    0.1668     6.1
                  6    6  1.6896E-05  3.9983E-04    0.2510     6.2
                  7    7  3.8105E-06  9.0170E-05    0.2255     6.3

 CPHF converged to   9.0D-05 in    7 iters

                Dipole Moments (a.u.)
                --------------
         Nuclear       SCF       SCF+MP2
       ----------- ----------- -----------
 X      -0.999902   -1.072426   -1.037609
 Y      -0.000404    0.000053    0.000046
 Z       0.000000    0.000000    0.000000


 MP2 alpha    natural orbital occupation numbers


              1      
    1    1.0000
    2    0.9951
    3    0.9911
    4    0.9876
    5    0.9863
    6    0.0096
    7    0.0086
    8    0.0055
    9    0.0040
   10    0.0023
   11    0.0022
   12    0.0022
   13    0.0021
   14    0.0019
   15    0.0004
   16    0.0003
   17    0.0002
   18    0.0001
   19    0.0001
   20    0.0001
   21    0.0001
   22    0.0001
   23    0.0000
   24    0.0000
   25    0.0000

 MP2 beta     natural orbital occupation numbers


              1      
    1    1.0000
    2    0.9921
    3    0.9873
    4    0.9863
    5    0.0101
    6    0.0087
    7    0.0043
    8    0.0029
    9    0.0022
   10    0.0021
   11    0.0010
   12    0.0010
   13    0.0007
   14    0.0003
   15    0.0003
   16    0.0002
   17    0.0002
   18    0.0001
   19    0.0001
   20    0.0001
   21    0.0001
   22    0.0001
   23    0.0000
   24    0.0000
   25    0.0000

  MP2 natural orbitals output to ./H2O_freq.mp2nos

  Using symmetry


                         mp2 ENERGY GRADIENTS

    atom               coordinates                        gradient
                 x          y          z           x          y          z
   1 O       0.124405  -0.000058   0.000000    0.027658  -0.000039   0.000000
   2 H1     -0.997562   1.597244   0.000000   -0.013842   0.020508   0.000000
   3 H2     -0.997576  -1.597187   0.000000   -0.013816  -0.020469   0.000000

                 ----------------------------------------
                 |  Time  |  1-e(secs)   |  2-e(secs)   |
                 ----------------------------------------
                 |  CPU   |       0.00   |       0.17   |
                 ----------------------------------------
                 |  WALL  |       0.00   |       0.19   |
                 ----------------------------------------
 -----------------------
 Performance information
 -----------------------

 Timer overhead =  2.36D-06 seconds/call

               Nr. of calls         CPU time (s)                 Wall time (s)                GFlops
             ---------------    -------------------     ------------------------------   -------------------
Name         Min   Avg   Max    Min     Avg     Max     Min     Avg     Max   Mx/calls   Min     Max     Sum
mp2: moin     2     2     2   0.20    0.20    0.21     0.23    0.23    0.23    0.12      0.0     0.0     0.0   
mp2: make     2     2     2   9.95E-3 1.10E-2 1.20E-2  1.52E-2 1.62E-2 1.71E-2 8.56E-3   0.0     0.0     0.0   
mp2: pija     2     2     2   1.58E-2 1.59E-2 1.59E-2  1.75E-2 1.75E-2 1.75E-2 8.76E-3   0.0     0.0     0.0   
mp2: wija     2     2     2   1.61E-2 1.61E-2 1.61E-2  1.64E-2 1.64E-2 1.64E-2 8.22E-3   0.0     0.0     0.0   
mp2: lai      2     2     2   9.03E-3 9.46E-3 9.89E-3  1.01E-2 1.01E-2 1.02E-2 5.08E-3   0.0     0.0     0.0   
mp2: back     2     2     2   1.19E-2 1.19E-2 1.19E-2  1.21E-2 1.21E-2 1.21E-2 6.07E-3   0.0     0.0     0.0   
mp2: nons     2     2     2   0.45    0.46    0.46     0.48    0.49    0.50    0.25      0.0     0.0     0.0   
mp2: laif     1     1     1   5.15E-2 5.17E-2 5.18E-2  5.43E-2 5.43E-2 5.44E-2 5.44E-2   0.0     0.0     0.0   
mp2: cphf     1     1     1   0.38    0.40    0.42     0.48    0.48    0.48    0.48      0.0     0.0     0.0   
mp2: wijf     1     1     1   5.61E-2 5.96E-2 6.31E-2  0.12    0.12    0.12    0.12      0.0     0.0     0.0   
mp2: sep      1     1     1   0.20    0.20    0.21     0.22    0.22    0.22    0.22      0.0     0.0     0.0   
mp2: tota     1     1     1    1.8     2.2     2.6      4.3     4.3     4.3     4.3      0.0     0.0     0.0   

 The average no. of pstat calls per process was 1.90D+01
 with a timing overhead of 4.48D-05s


@ Step       Energy      Delta E   Gmax     Grms     Xrms     Xmax   Walltime
@ ---- ---------------- -------- -------- -------- -------- -------- --------
@    0     -75.77505259  0.0D+00  0.02474  0.02018  0.00000  0.00000     18.6
                                                       ok       ok  



                                Z-matrix (autoz)
                                -------- 

 Units are Angstrom for bonds and degrees for angles

      Type          Name      I     J     K     L     M      Value     Gradient
      ----------- --------  ----- ----- ----- ----- ----- ---------- ----------
    1 Stretch                  1     2                       1.03294    0.02474
    2 Stretch                  1     3                       1.03287    0.02469
    3 Bend                     2     1     3               109.82731    0.00048

                                 NWChem SCF Module
                                 -----------------


                     H2O+ : 6-31g** UMP2 geometry optimization



  ao basis        = "ao basis"
  functions       =    25
  atoms           =     3
  alpha electrons =     5
  beta  electrons =     4
  charge          =   1.00
  wavefunction    = UHF 
  input vectors   = ./H2O_freq.movecs
  output vectors  = ./H2O_freq.movecs
  use symmetry    = T
  symmetry adapt  = T


 Forming initial guess at      18.7s


 Starting SCF solution at      18.7s



       Final UHF  results 
       ------------------ 

         Total SCF energy =    -75.627153964307
      One electron energy =   -117.323906122631
      Two electron energy =     32.971744035911
 Nuclear repulsion energy =      8.725008122414

                       Sz =      0.5000
                 Sz(Sz+1) =      0.7500
                      S^2 =      0.7573

        Time for solution =      0.6s


                   NWChem MP2 Semi-direct Energy/Gradient Module
                   ---------------------------------------------


                     H2O+ : 6-31g** UMP2 geometry optimization


  Basis functions       =     25
  Molecular orbitals    =     25
  Frozen core           =      0
  Frozen virtuals       =      0
  Active alpha occupied =      5
  Active beta occupied  =      4
  Active alpha virtual  =     20
  Active beta virtual   =     21
  Use MO symmetry       = T
  Use skeleton AO sym   = T

  AO/Fock/Back tols     =   1.0D-09  1.0D-09  1.0D-09

 GA uses MA = F    GA memory limited = T

 Available: 
  local mem=  2.62D+07
 global mem=  2.10D+08
 local disk=  2.00D+09
   1 passes of   5:         325475                       4309                     16909.

 Semi-direct pass number   1 of   1  for UHF alpha       at       20.5s
Node 0 wrote      0.1 Mb in      0.0 s     Agg I/O rate:   175.5 Mb/s
 Done moints_semi at       20.6s
 Done maket at       20.6s
 Done multipass loop at       20.6s

 GA uses MA = F    GA memory limited = T

 Available: 
  local mem=  2.62D+07
 global mem=  2.10D+08
 local disk=  2.00D+09
   1 passes of   4:         324557                       3721                     14920.

 Semi-direct pass number   1 of   1  for UHF beta        at       21.7s
Node 0 wrote      0.1 Mb in      0.0 s     Agg I/O rate:   185.3 Mb/s
 Done moints_semi at       21.9s
 Done maket at       21.9s
 Done multipass loop at       21.9s


          -------------------------------------------
          SCF energy                 -75.627153964307
          Correlation energy          -0.149411642367
          Singlet pairs                0.000000000000
          Triplet pairs                0.000000000000
          Total MP2 energy           -75.776565606673
          -------------------------------------------

 -----------------------
 Performance information
 -----------------------

 Timer overhead =  2.33D-06 seconds/call

               Nr. of calls         CPU time (s)                 Wall time (s)                GFlops
             ---------------    -------------------     ------------------------------   -------------------
Name         Min   Avg   Max    Min     Avg     Max     Min     Avg     Max   Mx/calls   Min     Max     Sum
mp2: moin     2     2     2   0.20    0.20    0.21     0.22    0.22    0.22    0.11      0.0     0.0     0.0   
mp2: make     2     2     2   8.77E-3 9.64E-3 1.05E-2  1.87E-2 1.93E-2 1.99E-2 9.96E-3   0.0     0.0     0.0   
mp2: tota     1     1     1   0.54    0.64    0.74      2.5     2.5     2.5     2.5      0.0     0.0     0.0   

 The average no. of pstat calls per process was 5.00D+00
 with a timing overhead of 1.17D-05s

 Line search: 
     step= 1.00 grad=-2.4D-03 hess= 8.7D-04 energy=    -75.776566 mode=downhill
 new step= 1.37                   predicted energy=    -75.776687

          --------
          Step   1
          --------


                         Geometry "geometry" -> "geometry"
                         ---------------------------------

 Output coordinates in angstroms (scale by  1.889725989 to convert to a.u.)

  No.       Tag          Charge          X              Y              Z
 ---- ---------------- ---------- -------------- -------------- --------------
    1 O                    8.0000     0.04821591     0.00271776     0.00000000
    2 H1                   1.0000    -0.51811484     0.81944442     0.00000000
    3 H2                   1.0000    -0.52005056    -0.82216218     0.00000000

      Atomic Mass 
      ----------- 

      O                 15.994910
      H1                 1.007825
      H2                 1.007825


 Effective nuclear repulsion energy (a.u.)       8.8082289420

            Nuclear Dipole moment (a.u.) 
            ----------------------------
        X                 Y               Z
 ---------------- ---------------- ----------------
    -1.2329293263     0.0359507027     0.0000000000

      Symmetry information
      --------------------

 Group name             Cs        
 Group number              2
 Group order               2
 No. of unique centers     3

      Symmetry unique atoms

     1    2    3

                                 NWChem SCF Module
                                 -----------------


                     H2O+ : 6-31g** UMP2 geometry optimization



  ao basis        = "ao basis"
  functions       =    25
  atoms           =     3
  alpha electrons =     5
  beta  electrons =     4
  charge          =   1.00
  wavefunction    = UHF 
  input vectors   = ./H2O_freq.movecs
  output vectors  = ./H2O_freq.movecs
  use symmetry    = T
  symmetry adapt  = T


 Forming initial guess at      21.9s


 Starting SCF solution at      21.9s



       Final UHF  results 
       ------------------ 

         Total SCF energy =    -75.627778690813
      One electron energy =   -117.455590755303
      Two electron energy =     33.019583122483
 Nuclear repulsion energy =      8.808228942007

                       Sz =      0.5000
                 Sz(Sz+1) =      0.7500
                      S^2 =      0.7571

        Time for solution =      0.5s


                   NWChem MP2 Semi-direct Energy/Gradient Module
                   ---------------------------------------------


                     H2O+ : 6-31g** UMP2 geometry optimization


  Basis functions       =     25
  Molecular orbitals    =     25
  Frozen core           =      0
  Frozen virtuals       =      0
  Active alpha occupied =      5
  Active beta occupied  =      4
  Active alpha virtual  =     20
  Active beta virtual   =     21
  Use MO symmetry       = T
  Use skeleton AO sym   = T

  AO/Fock/Back tols     =   1.0D-09  1.0D-09  1.0D-09

 GA uses MA = F    GA memory limited = T

 Available: 
  local mem=  2.62D+07
 global mem=  2.10D+08
 local disk=  2.00D+09
   1 passes of   5:        1272900                       5584                     29657.

 Semi-direct pass number   1 of   1  for UHF alpha       at       23.7s
Node 0 wrote      0.1 Mb in      0.0 s     Agg I/O rate:   170.1 Mb/s
 Done moints_semi at       23.8s
 Done maket at       23.8s
 Done pijab at       23.9s
 Done wijab at       23.9s
 Done lai at       23.9s
 Done nonsep at       24.2s
 Done multipass loop at       24.2s

 GA uses MA = F    GA memory limited = T

 Available: 
  local mem=  2.62D+07
 global mem=  2.10D+08
 local disk=  2.00D+09
   1 passes of   4:        1271957                       5682                     24476.

 Semi-direct pass number   1 of   1  for UHF beta        at       25.3s
Node 0 wrote      0.1 Mb in      0.0 s     Agg I/O rate:   186.2 Mb/s
 Done moints_semi at       25.4s
 Done maket at       25.4s
 Done pijab at       25.4s
 Done wijab at       25.5s
 Done lai at       25.5s
 Done nonsep at       25.7s
 Done multipass loop at       25.7s


          -------------------------------------------
          SCF energy                 -75.627778690813
          Correlation energy          -0.148868269971
          Singlet pairs                0.000000000000
          Triplet pairs                0.000000000000
          Total MP2 energy           -75.776646960784
          -------------------------------------------

                                NWChem CPHF Module
                                ------------------


    scftype = UHF 
     nalpha =    5
      nbeta =    4
  variables =      184
  tolerance =   1.0D-04
  max. iter =  100


            ----- linear solve (tol: 1.0E-04 prod-acc: 3.0E-10) -----

               iter nbas    rnorm     rnorm-scal   ratio     time
               ---- ---- ----------- ----------- --------- -------
                  1    1  1.2446E-02  3.0408E-01    0.0000    10.2
                  2    2  3.9126E-03  9.5591E-02    0.3144    10.3
                  3    3  1.2810E-03  3.1296E-02    0.3274    10.3
                  4    4  3.1708E-04  7.7467E-03    0.2475    10.4
                  5    5  5.0177E-05  1.2259E-03    0.1582    10.4
                  6    6  1.1905E-05  2.9086E-04    0.2373    10.4
                  7    7  2.6845E-06  6.5585E-05    0.2255    10.5

 CPHF converged to   6.6D-05 in    7 iters

                Dipole Moments (a.u.)
                --------------
         Nuclear       SCF       SCF+MP2
       ----------- ----------- -----------
 X      -1.232929   -1.050545   -1.021295
 Y       0.035951   -0.004921   -0.004249
 Z       0.000000    0.000000    0.000000


 MP2 alpha    natural orbital occupation numbers


              1      
    1    1.0000
    2    0.9952
    3    0.9913
    4    0.9881
    5    0.9870
    6    0.0090
    7    0.0080
    8    0.0053
    9    0.0039
   10    0.0023
   11    0.0022
   12    0.0021
   13    0.0021
   14    0.0019
   15    0.0003
   16    0.0003
   17    0.0002
   18    0.0002
   19    0.0001
   20    0.0001
   21    0.0001
   22    0.0001
   23    0.0000
   24    0.0000
   25    0.0000

 MP2 beta     natural orbital occupation numbers


              1      
    1    1.0000
    2    0.9922
    3    0.9879
    4    0.9870
    5    0.0094
    6    0.0081
    7    0.0042
    8    0.0029
    9    0.0022
   10    0.0021
   11    0.0010
   12    0.0010
   13    0.0007
   14    0.0003
   15    0.0003
   16    0.0002
   17    0.0002
   18    0.0002
   19    0.0001
   20    0.0001
   21    0.0001
   22    0.0001
   23    0.0000
   24    0.0000
   25    0.0000

  MP2 natural orbitals output to ./H2O_freq.mp2nos

  Using symmetry


                         mp2 ENERGY GRADIENTS

    atom               coordinates                        gradient
                 x          y          z           x          y          z
   1 O       0.091115   0.005136   0.000000   -0.002181   0.005438   0.000000
   2 H1     -0.979095   1.548525   0.000000    0.002974  -0.003479   0.000000
   3 H2     -0.982753  -1.553661   0.000000   -0.000793  -0.001958   0.000000

                 ----------------------------------------
                 |  Time  |  1-e(secs)   |  2-e(secs)   |
                 ----------------------------------------
                 |  CPU   |       0.00   |       0.16   |
                 ----------------------------------------
                 |  WALL  |       0.00   |       0.19   |
                 ----------------------------------------
 -----------------------
 Performance information
 -----------------------

 Timer overhead =  2.35D-06 seconds/call

               Nr. of calls         CPU time (s)                 Wall time (s)                GFlops
             ---------------    -------------------     ------------------------------   -------------------
Name         Min   Avg   Max    Min     Avg     Max     Min     Avg     Max   Mx/calls   Min     Max     Sum
mp2: moin     2     2     2   0.19    0.20    0.22     0.23    0.23    0.23    0.12      0.0     0.0     0.0   
mp2: make     2     2     2   1.53E-2 1.73E-2 1.93E-2  2.47E-2 2.56E-2 2.66E-2 1.33E-2   0.0     0.0     0.0   
mp2: pija     2     2     2   1.56E-2 1.67E-2 1.79E-2  1.84E-2 1.84E-2 1.85E-2 9.23E-3   0.0     0.0     0.0   
mp2: wija     2     2     2   1.60E-2 1.60E-2 1.61E-2  1.62E-2 1.62E-2 1.63E-2 8.13E-3   0.0     0.0     0.0   
mp2: lai      2     2     2   9.63E-3 9.67E-3 9.71E-3  9.80E-3 9.83E-3 9.86E-3 4.93E-3   0.0     0.0     0.0   
mp2: back     2     2     2   1.21E-2 1.21E-2 1.21E-2  1.30E-2 1.30E-2 1.30E-2 6.52E-3   0.0     0.0     0.0   
mp2: nons     2     2     2   0.45    0.46    0.46     0.49    0.50    0.51    0.25      0.0     0.0     0.0   
mp2: laif     1     1     1   5.20E-2 5.40E-2 5.60E-2  6.02E-2 6.02E-2 6.03E-2 6.03E-2   0.0     0.0     0.0   
mp2: cphf     1     1     1   0.34    0.35    0.36     0.39    0.39    0.39    0.39      0.0     0.0     0.0   
mp2: wijf     1     1     1   5.04E-2 5.12E-2 5.20E-2  5.23E-2 5.23E-2 5.23E-2 5.23E-2   0.0     0.0     0.0   
mp2: sep      1     1     1   0.20    0.21    0.21     0.24    0.24    0.24    0.24      0.0     0.0     0.0   
mp2: tota     1     1     1    1.7     1.9     2.2      4.0     4.0     4.0     4.0      0.0     0.0     0.0   

 The average no. of pstat calls per process was 1.90D+01
 with a timing overhead of 4.46D-05s


  Step       Energy      Delta E   Gmax     Grms     Xrms     Xmax   Walltime
  ---- ---------------- -------- -------- -------- -------- -------- --------
@    1     -75.77664696 -1.6D-03  0.00455  0.00290  0.02578  0.04887     26.5
                                                                    



                                Z-matrix (autoz)
                                -------- 

 Units are Angstrom for bonds and degrees for angles

      Type          Name      I     J     K     L     M      Value     Gradient
      ----------- --------  ----- ----- ----- ----- ----- ---------- ----------
[...]
 ==============================================================================



 ==============================================================================
                                 internuclear angles
 ------------------------------------------------------------------------------
        center 1       |       center 2       |       center 3       |  degrees
 ------------------------------------------------------------------------------
    2 H1               |   1 O                |   3 H2               |   110.30
 ------------------------------------------------------------------------------
                            number of included internuclear angles:          1
 ==============================================================================




 Task  times  cpu:       13.5s     wall:       29.9s


                                NWChem Input Module
                                -------------------


                          H2O+ : 6-31g** UMP2 frequencies
                          -------------------------------


                   NWChem Nuclear Hessian and Frequency Analysis
                   ---------------------------------------------



                         NWChem Finite-difference Hessian
                         --------------------------------



 Saving state for mp2 with suffix hess
        ./H2O_freq.movecs

  
 initial hessian

 zero matrix

  
 atom:   1 xyz: 1(+) wall time:      45.9      date:  Sun Jan 14 16:44:07 2007

 atom:   1 xyz: 1(-) wall time:      50.5      date:  Sun Jan 14 16:44:12 2007

 atom:   1 xyz: 2(+) wall time:      54.9      date:  Sun Jan 14 16:44:16 2007

 atom:   1 xyz: 2(-) wall time:      59.2      date:  Sun Jan 14 16:44:21 2007

 atom:   1 xyz: 3(+) wall time:      65.2      date:  Sun Jan 14 16:44:27 2007

 atom:   1 xyz: 3(-) wall time:      69.6      date:  Sun Jan 14 16:44:31 2007

 atom:   2 xyz: 1(+) wall time:      74.0      date:  Sun Jan 14 16:44:35 2007

 atom:   2 xyz: 1(-) wall time:      78.6      date:  Sun Jan 14 16:44:40 2007

 atom:   2 xyz: 2(+) wall time:      83.0      date:  Sun Jan 14 16:44:44 2007

 atom:   2 xyz: 2(-) wall time:      87.8      date:  Sun Jan 14 16:44:49 2007

 atom:   2 xyz: 3(+) wall time:      94.6      date:  Sun Jan 14 16:44:56 2007

 atom:   2 xyz: 3(-) wall time:     100.5      date:  Sun Jan 14 16:45:02 2007

 atom:   3 xyz: 1(+) wall time:     105.0      date:  Sun Jan 14 16:45:06 2007

 atom:   3 xyz: 1(-) wall time:     109.5      date:  Sun Jan 14 16:45:11 2007

 atom:   3 xyz: 2(+) wall time:     114.0      date:  Sun Jan 14 16:45:15 2007

 atom:   3 xyz: 2(-) wall time:     119.5      date:  Sun Jan 14 16:45:21 2007

 atom:   3 xyz: 3(+) wall time:     125.6      date:  Sun Jan 14 16:45:27 2007

 atom:   3 xyz: 3(-) wall time:     130.1      date:  Sun Jan 14 16:45:32 2007

  
  finite difference hessian delta =   1.000000000000000E-003

              1        2        3        4        5        6        7        8
    1    0.3594   0.0000   0.0000  -0.1797   0.1634   0.0000  -0.1797  -0.1634
    2    0.0000   0.5973   0.0000   0.2079  -0.2986   0.0000  -0.2079  -0.2986
    3    0.0000   0.0000   0.0000   0.0000   0.0000   0.0000   0.0000   0.0000
    4   -0.1797   0.2079   0.0000   0.1622  -0.1857   0.0000   0.0175  -0.0223
    5    0.1634  -0.2986   0.0000  -0.1857   0.3185   0.0000   0.0222  -0.0199
    6    0.0000   0.0000   0.0000   0.0000   0.0000   0.0000   0.0000   0.0000
    7   -0.1797  -0.2079   0.0000   0.0175   0.0222   0.0000   0.1622   0.1857
    8   -0.1634  -0.2986   0.0000  -0.0223  -0.0199   0.0000   0.1857   0.3185
    9    0.0000   0.0000   0.0000   0.0000   0.0000   0.0000   0.0000   0.0000

              9      
    3    0.0000
    6    0.0000
    9    0.0000
  

  finite difference derivative dipole; delta =   1.000000000000000E-003

  
  
 X vector of derivative dipole (au) [debye/angstrom]
 d_dipole_x/<atom=   1,x> =     0.1074     [    0.5160]
 d_dipole_x/<atom=   1,y> =     0.0000     [    0.0000]
 d_dipole_x/<atom=   1,z> =     0.0000     [    0.0000]
 d_dipole_x/<atom=   2,x> =     0.4463     [    2.1435]
 d_dipole_x/<atom=   2,y> =    -0.0532     [   -0.2557]
 d_dipole_x/<atom=   2,z> =     0.0000     [    0.0000]
 d_dipole_x/<atom=   3,x> =     0.4463     [    2.1436]
 d_dipole_x/<atom=   3,y> =     0.0533     [    0.2558]
 d_dipole_x/<atom=   3,z> =     0.0000     [    0.0000]
  
 Y vector of derivative dipole (au) [debye/angstrom]
 d_dipole_y/<atom=   1,x> =     0.0000     [    0.0000]
 d_dipole_y/<atom=   1,y> =    -0.1902     [   -0.9138]
 d_dipole_y/<atom=   1,z> =     0.0000     [    0.0000]
 d_dipole_y/<atom=   2,x> =    -0.0535     [   -0.2569]
 d_dipole_y/<atom=   2,y> =     0.5951     [    2.8586]
 d_dipole_y/<atom=   2,z> =     0.0000     [    0.0000]
 d_dipole_y/<atom=   3,x> =     0.0535     [    0.2569]
 d_dipole_y/<atom=   3,y> =     0.5951     [    2.8586]
 d_dipole_y/<atom=   3,z> =     0.0000     [    0.0000]
  
 Z vector of derivative dipole (au) [debye/angstrom]
 d_dipole_z/<atom=   1,x> =     0.0000     [    0.0000]
 d_dipole_z/<atom=   1,y> =     0.0000     [    0.0000]
 d_dipole_z/<atom=   1,z> =    -0.0366     [   -0.1758]
 d_dipole_z/<atom=   2,x> =     0.0000     [    0.0000]
 d_dipole_z/<atom=   2,y> =     0.0000     [    0.0000]
 d_dipole_z/<atom=   2,z> =     0.5183     [    2.4895]
 d_dipole_z/<atom=   3,x> =     0.0000     [    0.0000]
 d_dipole_z/<atom=   3,y> =     0.0000     [    0.0000]
 d_dipole_z/<atom=   3,z> =     0.5183     [    2.4895]
  
  
  stpr_wrt_fd_from_sq: overwrite of existing file:./H2O_freq.hess
 stpr_wrt_fd_dipole: overwrite of existing file./H2O_freq.fd_ddipole
  triangle hessian written to ./H2O_freq.hess
  derivative dipole written to ./H2O_freq.fd_ddipole

 Deleting state for mp2 with suffix hess
        ./H2O_freq.movecs



  Vibrational analysis via the FX method 

  See chapter 2 in "Molecular Vibrations" by Wilson, Decius and Cross

  Vib: Default input used 

  Nuclear Hessian passed symmetry test 



 ---------------------------- Atom information ----------------------------
     atom    #        X              Y              Z            mass
 --------------------------------------------------------------------------
    O        1  9.5823024D-02 -1.4100943D-05  0.0000000D+00  1.5994910D+01
    H        2 -9.8324165D-01  1.5498502D+00  0.0000000D+00  1.0078250D+00
    H        3 -9.8331466D-01 -1.5498361D+00  0.0000000D+00  1.0078250D+00
 --------------------------------------------------------------------------




          ----------------------------------------------------
          MASS-WEIGHTED NUCLEAR HESSIAN (Hartree/Bohr/Bohr/Kamu)
          ----------------------------------------------------


              1           2           3           4           5           6           7           8           9
   ----- ----- ----- ----- -----
    1   2.24696D+01
    2  -4.44774D-05 3.73410D+01
    3   0.00000D+00 0.00000D+00 8.24463D-05
    4  -4.47565D+01 5.17856D+01 0.00000D+00 1.60973D+02
    5   4.07016D+01-7.43811D+01 0.00000D+00-1.84227D+02 3.16019D+02
    6   0.00000D+00 0.00000D+00-1.40046D-03 0.00000D+00 0.00000D+00 4.53433D-03
    7  -4.47599D+01-5.17854D+01 0.00000D+00 1.73283D+01 2.20760D+01 0.00000D+00 1.60987D+02
    8  -4.07014D+01-7.43752D+01 0.00000D+00-2.20821D+01-1.96986D+01 0.00000D+00 1.84228D+02 3.15995D+02
    9   0.00000D+00 0.00000D+00-1.80976D-03 0.00000D+00 0.00000D+00 1.04397D-03 0.00000D+00 0.00000D+00 6.16575D-03



          -------------------------------------------------
          NORMAL MODE EIGENVECTORS IN CARTESIAN COORDINATES
          -------------------------------------------------
                 (Frequencies expressed in cm-1)

                    1           2           3           4           5           6
 
 Frequency         -4.14       -3.72        4.00       10.36       13.54       13.96
 
           1     0.00000     0.22649    -0.06410     0.00000    -0.01080     0.00000
           2     0.00000     0.05797     0.21846     0.00000    -0.08090     0.00000
           3     0.23803     0.00000     0.00000    -0.01962     0.00000    -0.07402
           4     0.00000     0.27641     0.01430     0.00000     0.57074     0.00000
           5     0.00000     0.09273     0.27304     0.00000     0.32398     0.00000
           6     0.21202     0.00000     0.00000     0.86114     0.00000     0.45357
           7     0.00000     0.17658    -0.14250     0.00000    -0.59231     0.00000
           8     0.00000     0.09273     0.27304     0.00000     0.32401     0.00000
           9     0.21933     0.00000     0.00000    -0.49454     0.00000     0.83640

                    7           8           9
 
 Frequency       1484.76     3460.04     3551.38
 
           1    -0.06911    -0.04713     0.00001
           2     0.00000    -0.00002    -0.06994
           3     0.00000     0.00000     0.00000
           4     0.54838     0.37390    -0.38649
           5     0.39686    -0.58177     0.55512
           6     0.00000     0.00000     0.00000
           7     0.54837     0.37412     0.38633
           8    -0.39689     0.58203     0.55482
           9     0.00000     0.00000     0.00000



 ----------------------------------------------------------------------------
 Normal Eigenvalue ||         Derivative Dipole Moments (debye/angs)
  Mode   [cm**-1]  ||      [d/dqX]             [d/dqY]           [d/dqZ]
 ------ ---------- || ------------------ ------------------ -----------------
    1       -4.142 ||       0.000               0.000             1.032
    2       -3.722 ||       1.088               0.452             0.000
    3        4.005 ||      -0.308               1.321             0.000
    4       10.360 ||       0.000               0.000             0.916
    5       13.538 ||      -0.052               1.627             0.000
    6       13.955 ||       0.000               0.000             3.224
    7     1484.761 ||       2.112               0.000             0.000
    8     3460.038 ||       1.877               0.001             0.000
    9     3551.379 ||       0.000               3.435             0.000
 ----------------------------------------------------------------------------



  
  
 ----------------------------------------------------------------------------
 Normal Eigenvalue ||                 Infra Red Intensities
  Mode   [cm**-1]  || [atomic units] [(debye/angs)**2] [(KM/mol)] [arbitrary]
 ------ ---------- || -------------- ----------------- ---------- -----------
    1       -4.142 ||    0.046163           1.065        45.002       2.525
    2       -3.722 ||    0.060132           1.387        58.620       3.289
    3        4.005 ||    0.079760           1.840        77.754       4.362
    4       10.360 ||    0.036375           0.839        35.461       1.989
    5       13.538 ||    0.114923           2.651       112.033       6.285
    6       13.955 ||    0.450625          10.396       439.292      24.646
    7     1484.761 ||    0.193390           4.462       188.526      10.577
    8     3460.038 ||    0.152666           3.522       148.826       8.350
    9     3551.379 ||    0.511528          11.801       498.663      27.977
 ----------------------------------------------------------------------------





        Vibrational analysis via the FX method 
  --- with translations and rotations projected out ---
  --- via the Eckart algorithm                      ---
 Projected Nuclear Hessian trans-rot subspace norm:1.9599D-32
                         (should be close to zero!) 


From the projected analysis 
The Zero-Point Energy (Kcal/mol) =          12.14953262

 center of mass
 --------------
 x =  -0.02494448 y =  -0.00001173 z =   0.00000000

 moments of inertia (a.u.)
 ------------------
           4.841618881616          -0.000073171570           0.000000000000
          -0.000073171570           2.084462285897           0.000000000000
           0.000000000000           0.000000000000           6.926081167513

 Rotational Constants
 --------------------
 A=  28.880434 cm-1  ( 41.551574 K)
 B=  12.433894 cm-1  ( 17.889200 K)
 C=   8.691809 cm-1  ( 12.505295 K)


 Temperature                      =   298.15K

 Zero-Point correction to Energy  =   12.140 kcal/mol  (  0.019346 au)
 Thermal correction to Energy     =   13.920 kcal/mol  (  0.022183 au)
 Thermal correction to Enthalpy   =   14.512 kcal/mol  (  0.023127 au)

 Total Entropy                    =   46.623 cal/mol-K
   - Translational                =   34.593 cal/mol-K (mol. weight =  18.0106)
   - Rotational                   =   12.018 cal/mol-K (symmetry #  =        1)
   - Vibrational                  =    0.013 cal/mol-K

 Cv (constant volume heat capacity) =    6.038 cal/mol-K
   - Translational                  =    2.979 cal/mol-K
   - Rotational                     =    2.979 cal/mol-K
   - Vibrational                    =    0.079 cal/mol-K



          -------------------------------------------------
          NORMAL MODE EIGENVECTORS IN CARTESIAN COORDINATES
          -------------------------------------------------
             (Projected Frequencies expressed in cm-1)

                    1           2           3           4           5           6
 
 P.Frequency        0.00        0.00        0.00        0.00        0.00        0.00
 
           1     0.03302     0.23236     0.00000     0.00000     0.00000    -0.02102
           2     0.08895     0.00752     0.00000     0.00000     0.00000     0.22285
           3     0.00000     0.00000     0.25004     0.00000     0.00000     0.00000
           4     0.52207     0.13454     0.00000     0.00000     0.00000    -0.33419
           5     0.42944    -0.06059     0.00000     0.00000     0.00000     0.00481
           6     0.00000     0.00000     0.00000     0.99611     0.00000     0.00000
           7    -0.45602     0.33018     0.00000     0.00000     0.00000     0.29214
           8     0.42946    -0.06059     0.00000     0.00000     0.00000     0.00479
           9     0.00000     0.00000     0.00000     0.00000     0.99611     0.00000

                    7           8           9
 
 P.Frequency     1484.76     3460.03     3551.39
 
           1    -0.06911    -0.04713     0.00001
           2     0.00000    -0.00002    -0.06994
           3     0.00000     0.00000     0.00000
           4     0.54838     0.37390    -0.38649
           5     0.39686    -0.58178     0.55512
           6     0.00000     0.00000     0.00000
           7     0.54837     0.37411     0.38633
           8    -0.39688     0.58203     0.55483
           9     0.00000     0.00000     0.00000



 ----------------------------------------------------------------------------
 Normal Eigenvalue ||    Projected Derivative Dipole Moments (debye/angs)
  Mode   [cm**-1]  ||      [d/dqX]             [d/dqY]           [d/dqZ]
 ------ ---------- || ------------------ ------------------ -----------------
    1        0.000 ||       0.159               2.123             0.000
    2        0.000 ||       1.116              -0.303             0.000
    3        0.000 ||       0.000               0.000            -0.044
    4        0.000 ||       0.000               0.000             2.480
    5        0.000 ||       0.000               0.000             2.480
    6        0.000 ||      -0.101              -0.015             0.000
    7     1484.757 ||       2.112               0.000             0.000
    8     3460.033 ||       1.877               0.001             0.000
    9     3551.387 ||       0.000               3.435             0.000
 ----------------------------------------------------------------------------



  
  
 ----------------------------------------------------------------------------
 Normal Eigenvalue ||           Projected Infra Red Intensities
  Mode   [cm**-1]  || [atomic units] [(debye/angs)**2] [(KM/mol)] [arbitrary]
 ------ ---------- || -------------- ----------------- ---------- -----------
    1        0.000 ||    0.196395           4.531       191.455      10.741
    2        0.000 ||    0.057967           1.337        56.509       3.170
    3        0.000 ||    0.000084           0.002         0.082       0.005
    4        0.000 ||    0.266540           6.149       259.836      14.578
    5        0.000 ||    0.266540           6.149       259.836      14.578
    6        0.000 ||    0.000452           0.010         0.441       0.025
    7     1484.757 ||    0.193391           4.462       188.527      10.577
    8     3460.033 ||    0.152664           3.522       148.825       8.350
    9     3551.387 ||    0.511530          11.801       498.664      27.977
 ----------------------------------------------------------------------------



 vib:animation  F

 Task  times  cpu:       45.8s     wall:       92.9s
 Summary of allocated global arrays
-----------------------------------
  No active global arrays



                         GA Statistics for process    0
                         ------------------------------

       create   destroy   get      put      acc     scatter   gather  read&inc
calls: 2.21e+04 2.21e+04 5.79e+05 1.29e+05 1.41e+05 4269        0        0     
number of processes/call 1.02e+00 1.14e+00 1.05e+00 1.33e+00 0.00e+00
bytes total:             9.32e+07 4.69e+07 2.24e+07 8.54e+05 0.00e+00 0.00e+00
bytes remote:            7.87e+06 7.82e+06 5.44e+06 -6.76e+05 0.00e+00 0.00e+00
Max memory consumed for GA by this process: 263968 bytes
MA_summarize_allocated_blocks: starting scan ...
MA_summarize_allocated_blocks: scan completed: 0 heap blocks, 0 stack blocks
MA usage statistics:

	allocation statistics:
					      heap	     stack
					      ----	     -----
	current number of blocks	         0	         0
	maximum number of blocks	        26	        51
	current total bytes		         0	         0
	maximum total bytes		   1052996	  38459292
	maximum total K-bytes		      1053	     38460
	maximum total M-bytes		         2	        39


                                NWChem Input Module
                                -------------------






                                  ACKNOWLEDGEMENT
                                  ---------------

            Please use the following acknowledgement where appropriate 
            for results obtained with NWChem:

            High Performance Computational Chemistry Group, "NWChem, A
            Computational Chemistry Package for Parallel Computers, 
            Version 5.0" (2006), Pacific Northwest National Laboratory,
            Richland, Washington 99352-0999, USA.


                                     CITATION
                                     --------

            Please use the following citation when publishing results
            obtained with NWChem:

            E. J. Bylaska, W. A. de Jong, K. Kowalski, T. P. Straatsma,
            M. Valiev, D. Wang, E. Apra, T. L. Windus, S. Hirata, M. T. Hackler,
            Y. Zhao, P.-D. Fan, R. J. Harrison, M. Dupuis, D. M. A. Smith,
            J. Nieplocha, V. Tipparaju, M. Krishnan, A. A. Auer, M. Nooijen,
            E. Brown, G. Cisneros, G. I. Fann, H. Fruchtl, J. Garza, K. Hirao,
            R. Kendall, J. A. Nichols, K. Tsemekhman, K. Wolinski, J. Anchell,
            D. Bernholdt, P. Borowski, T. Clark, D. Clerc, H. Dachsel, M. Deegan,
            K. Dyall, D. Elwood, E. Glendening, M. Gutowski, A. Hess, J. Jaffe,
            B. Johnson, J. Ju, R. Kobayashi, R. Kutteh, Z. Lin, R. Littlefield,
            X. Long, B. Meng, T. Nakajima, S. Niu, L. Pollack, M. Rosing,
            G. Sandrone, M. Stave, H. Taylor, G. Thomas, J. van Lenthe, A. Wong,
            and Z. Zhang,
            "NWChem, A Computational Chemistry Package for Parallel Computers, 
            Version 5.0" (2006),
                      Pacific Northwest National Laboratory,
                      Richland, Washington 99352-0999, USA.



 Total times  cpu:       63.3s     wall:      136.1s
