 argument  1 = H2O_3.nw



============================== echo of input deck ==============================
echo
start H2O_freq

charge 1

title "H2O+ : STO-3G UHF geometry optimization"
geometry units angstrom
 O  0.0 0.0 0.0
 H1 0.0 0.0 1.0
 H2 0.0 1.0 0.0
end

basis
 H* library sto-3g
 O library sto-3g
end

scf
 uhf; doublet
end

task scf optimize
task scf freq

title "H2O+ : 6-31g** UMP2 geometry optimization"

basis
 H* library 6-31g**
 O  library 6-31g**
end

mp2; print none; end
scf; print none; end
task mp2 optimize

title "H2O+ : 6-31g** UMP2 frequencies"
task mp2 freq


title "H3O+ STO-3G RHF geometry optimization"
geometry units angstrom
 O  0.0 0.0 0.0
 H1 0.0 0.0 1.0
 H2 0.0 1.0 0.0
 H3 0.0 1.0 1.0
end

basis
 H* library sto-3g
 O library sto-3g
end

scf
 rhf; singlet
 print default
end

task scf optimize

title "H3O+ 6-311++G** DFT geometry optimization"
basis
 H* library 6-311++g**
 O  library 6-311++g**
end

dft
  xc acm
end

task dft optimize
task dft freq

================================================================================


                                         
                                         


              Northwest Computational Chemistry Package (NWChem) 4.6
              ------------------------------------------------------


                    Environmental Molecular Sciences Laboratory
                       Pacific Northwest National Laboratory
                                Richland, WA 99352

                                         
                                         


                     COPYRIGHT (C) 1994, 1995, 1996, 1997, 1998,
                         1999, 2000, 2001, 2002, 2003, 2004
                        Pacific Northwest National Laboratory,
                             Battelle Memorial Institute.

                            >>> All Rights Reserved <<<


                                    DISCLAIMER
                                    ----------

            This material was prepared as an account of work sponsored
            by an agency of the United States Government.  Neither the
            United States Government nor the United States Department
            of Energy, nor Battelle, nor any of their employees, MAKES
            ANY WARRANTY, EXPRESS OR IMPLIED, OR ASSUMES ANY LEGAL
            LIABILITY OR RESPONSIBILITY FOR THE ACCURACY, COMPLETENESS,
            OR USEFULNESS OF ANY INFORMATION, APPARATUS, PRODUCT,
            SOFTWARE, OR PROCESS DISCLOSED, OR REPRESENTS THAT ITS USE
            WOULD NOT INFRINGE PRIVATELY OWNED RIGHTS.


                                    LIMITED USE
                                    -----------

            This software (including any documentation) is being made
            available to you for your internal use only, solely for use
            in performance of work directly for the U.S. Federal
            Government or work under contracts with the U.S. Department
            of Energy or other U.S. Federal Government agencies.  This
            software is a version which has not yet been evaluated and
            cleared for commercialization.  Adherence to this notice
            may be necessary for the author, Battelle Memorial
            Institute, to successfully assert copyright in and
            commercialize this software. This software is not intended
            for duplication or distribution to third parties without
            the permission of the Manager of Software Products at
            Pacific Northwest National Laboratory, Richland,
            Washington, 99352.


                                  ACKNOWLEDGMENT
                                  --------------

            This software and its documentation were produced with
            Government support under Contract Number DE-AC06-76RLO-1830
            awarded by the United States Department of Energy.  The
            Government retains a paid-up non-exclusive, irrevocable
            worldwide license to reproduce, prepare derivative works,
            perform publicly and display publicly by or for the
            Government, including the right to distribute to other
            Government contractors.


           Job information
           ---------------

    hostname      = rkanters-mac.local
    program       = nwchem
    date          = Sun Oct 17 20:52:50 2004

    compiled      = Wed Aug  4 04:50:45 PDT 2004
    source        = /Users/d3j911/nwchem-4.6
    nwchem branch = 4.6
    input         = H2O_3.nw
    prefix        = H2O_freq.
    data base     = ./H2O_freq.db
    status        = startup
    nproc         =    1
    time left     =     -1s



           Memory information
           ------------------

    heap      =   39321593 doubles =    300.0 Mbytes
    stack     =   13107186 doubles =    100.0 Mbytes
    global    =   52428803 doubles =    400.0 Mbytes (within heap+stack)
    total     =   52428779 doubles =    400.0 Mbytes
    verify    = yes
    hardfail  = no 


           Directory information
           ---------------------

  0 permanent = .
  0 scratch   = .




                                NWChem Input Module
                                -------------------


                                                                                                             H2O+ : STO-3G UHF geometry optimization
                                                                                                             ---------------------------------------


 Scaling coordinates for geometry "geometry" by  1.889725989
 (inverse scale =  0.529177249)

 CS  symmetry detected

          ------
          auto-z
          ------


                             Geometry "geometry" -> ""
                             -------------------------

 Output coordinates in angstroms (scale by  1.889725989 to convert to a.u.)

  No.       Tag          Charge          X              Y              Z
 ---- ---------------- ---------- -------------- -------------- --------------
    1 O                    8.0000     0.14142136     0.00000000     0.00000000
    2 H1                   1.0000    -0.56568542     0.70710678     0.00000000
    3 H2                   1.0000    -0.56568542    -0.70710678     0.00000000

      Atomic Mass 
      ----------- 

      O                 15.994910
      H1                 1.007825
      H2                 1.007825


 Effective nuclear repulsion energy (a.u.)       8.8410208052

            Nuclear Dipole moment (a.u.) 
            ----------------------------
        X                 Y               Z
 ---------------- ---------------- ----------------
     0.0000000000     0.0000000000     0.0000000000

      Symmetry information
      --------------------

 Group name             Cs        
 Group number              2
 Group order               2
 No. of unique centers     3

      Symmetry unique atoms

     1    2    3



                                Z-matrix (autoz)
                                -------- 

 Units are Angstrom for bonds and degrees for angles

      Type          Name      I     J     K     L     M      Value
      ----------- --------  ----- ----- ----- ----- ----- ----------
    1 Stretch                  1     2                       1.00000
    2 Stretch                  1     3                       1.00000
    3 Bend                     2     1     3                90.00000

 ==============================================================================
                                internuclear distances
 ------------------------------------------------------------------------------
       center one      |      center two      | atomic units |  angstroms
 ------------------------------------------------------------------------------
    2 H1               |   1 O                |     1.88973  |     1.00000
    3 H2               |   1 O                |     1.88973  |     1.00000
 ------------------------------------------------------------------------------
                         number of included internuclear distances:          2
 ==============================================================================



 ==============================================================================
                                 internuclear angles
 ------------------------------------------------------------------------------
        center 1       |       center 2       |       center 3       |  degrees
 ------------------------------------------------------------------------------
    2 H1               |   1 O                |   3 H2               |    90.00
 ------------------------------------------------------------------------------
                            number of included internuclear angles:          1
 ==============================================================================



  library name resolved from: .nwchemrc
  library file name is: </usr/local/NWChem/usr.local.lib.nwchem/libraries/>
  


 Summary of "ao basis" -> "" (cartesian)
 ------------------------------------------------------------------------------
       Tag                 Description            Shells   Functions and Types
 ---------------- ------------------------------  ------  ---------------------
 O                           sto-3g                  3        5   2s1p
 H*                          sto-3g                   on all atoms 




                           NWChem Geometry Optimization
                           ----------------------------




                      H2O+ : STO-3G UHF geometry optimization


 maximum gradient threshold         (gmax) =   0.000450
 rms gradient threshold             (grms) =   0.000300
 maximum cartesian step threshold   (xmax) =   0.001800
 rms cartesian step threshold       (xrms) =   0.001200
 fixed trust radius                (trust) =   0.300000
 maximum step size to saddle      (sadstp) =   0.100000
 energy precision                  (eprec) =   1.0E-07
 maximum number of steps          (nptopt) =   20
 initial hessian option           (inhess) =    0
 line search option               (linopt) =    1
 hessian update option            (modupd) =    1
 saddle point option              (modsad) =    0
 initial eigen-mode to follow     (moddir) =    0
 initial variable to follow       (vardir) =    0
 follow first negative mode     (firstneg) =    T
 apply conjugacy                    (opcg) =    F
 source of zmatrix                         =   autoz   


          -------------------
          Energy Minimization
          -------------------


 Names of Z-matrix variables 
    1              2              3         

 Variables with the same non-blank name are constrained to be equal


 Using diagonal initial Hessian 
 Scaling for Hessian diagonals: bonds = 1.00  angles = 0.25  torsions = 0.10

          --------
          Step   0
          --------


                         Geometry "geometry" -> "geometry"
                         ---------------------------------

 Output coordinates in angstroms (scale by  1.889725989 to convert to a.u.)

  No.       Tag          Charge          X              Y              Z
 ---- ---------------- ---------- -------------- -------------- --------------
    1 O                    8.0000     0.14142136     0.00000000     0.00000000
    2 H1                   1.0000    -0.56568542     0.70710678     0.00000000
    3 H2                   1.0000    -0.56568542    -0.70710678     0.00000000

      Atomic Mass 
      ----------- 

      O                 15.994910
      H1                 1.007825
      H2                 1.007825


 Effective nuclear repulsion energy (a.u.)       8.8410208052

            Nuclear Dipole moment (a.u.) 
            ----------------------------
        X                 Y               Z
 ---------------- ---------------- ----------------
     0.0000000000     0.0000000000     0.0000000000

      Symmetry information
      --------------------

 Group name             Cs        
 Group number              2
 Group order               2
 No. of unique centers     3

      Symmetry unique atoms

     1    2    3

                      Basis "ao basis" -> "ao basis" (cartesian)
                      -----
  O (Oxygen)
  ----------
            Exponent  Coefficients 
       -------------- ---------------------------------------------------------
  1 S  1.30709320E+02  0.154329
  1 S  2.38088610E+01  0.535328
  1 S  6.44360830E+00  0.444635

  2 S  5.03315130E+00 -0.099967
  2 S  1.16959610E+00  0.399513
  2 S  3.80389000E-01  0.700115

  3 P  5.03315130E+00  0.155916
  3 P  1.16959610E+00  0.607684
  3 P  3.80389000E-01  0.391957

  H1 (Hydrogen)
  -------------
            Exponent  Coefficients 
       -------------- ---------------------------------------------------------
  1 S  3.42525091E+00  0.154329
  1 S  6.23913730E-01  0.535328
  1 S  1.68855400E-01  0.444635

  H2 (Hydrogen)
  -------------
            Exponent  Coefficients 
       -------------- ---------------------------------------------------------
  1 S  3.42525091E+00  0.154329
  1 S  6.23913730E-01  0.535328
  1 S  1.68855400E-01  0.444635



 Summary of "ao basis" -> "ao basis" (cartesian)
 ------------------------------------------------------------------------------
       Tag                 Description            Shells   Functions and Types
 ---------------- ------------------------------  ------  ---------------------
 O                           sto-3g                  3        5   2s1p
 H1                          sto-3g                  1        1   1s
 H2                          sto-3g                  1        1   1s


                                 NWChem SCF Module
                                 -----------------


                      H2O+ : STO-3G UHF geometry optimization



  ao basis        = "ao basis"
  functions       =     7
  atoms           =     3
  alpha electrons =     5
  beta  electrons =     4
  charge          =   1.00
  wavefunction    = UHF 
  input vectors   = atomic
  output vectors  = ./H2O_freq.movecs
  use symmetry    = T
  symmetry adapt  = T


 Summary of "ao basis" -> "ao basis" (cartesian)
 ------------------------------------------------------------------------------
       Tag                 Description            Shells   Functions and Types
 ---------------- ------------------------------  ------  ---------------------
 O                           sto-3g                  3        5   2s1p
 H1                          sto-3g                  1        1   1s
 H2                          sto-3g                  1        1   1s


      Symmetry analysis of basis
      --------------------------

        a'          6
        a"          1


 Forming initial guess at       0.8s


      Superposition of Atomic Density Guess
      -------------------------------------

 Sum of atomic energies:         -74.71095592

 Renormalizing density from      10.00 to      9

      Non-variational initial energy
      ------------------------------

 Total energy =     -69.642010
 1-e energy   =    -109.045238
 2-e energy   =      30.562207
 HOMO         =      -0.966058
 LUMO         =      -0.080499


   Symmetry analysis of molecular orbitals - initial alpha
   -------------------------------------------------------

  Numbering of irreducible representations: 

     1 a'          2 a"      

  Orbital symmetries:

     1 a'          2 a'          3 a'          4 a'          5 a"      
     6 a'          7 a'      


   Symmetry analysis of molecular orbitals - initial beta
   ------------------------------------------------------

  Numbering of irreducible representations: 

     1 a'          2 a"      

  Orbital symmetries:

     1 a'          2 a'          3 a'          4 a'          5 a"      
     6 a'          7 a'      


 Starting SCF solution at       0.9s



 ----------------------------------------------
         Quadratically convergent UHF

 Convergence threshold     :          1.000E-04
 Maximum no. of iterations :           20
 Integral*density screening:          1.000E-07
 ----------------------------------------------


 #quartets = 1.200E+02 #integrals = 2.560E+02 #direct =  0.0% #cached =100.0%


 Integral file          = ./H2O_freq.aoints.0
 Record size in doubles =  65536        No. of integs per rec  =  43688
 Max. records in memory =      2        Max. records in file   =   3569
 No. of bits per label  =      8        No. of bits per value  =     64


              iter       energy          gnorm     gmax       time
             ----- ------------------- --------- --------- --------
                 1      -74.5962070299  5.45E-01  3.25E-01      0.5
                 2      -74.6526399074  7.00E-02  5.48E-02      0.5
                 3      -74.6537542073  9.75E-04  7.78E-04      0.5
                 4      -74.6537545221  5.35E-06  3.29E-06      0.6


       Final UHF  results 
       ------------------ 

         Total SCF energy =    -74.653754522079
      One electron energy =   -115.830489513670
      Two electron energy =     32.335714186378
 Nuclear repulsion energy =      8.841020805213

                       Sz =      0.5000
                 Sz(Sz+1) =      0.7500
                      S^2 =      0.7566

        Time for solution =      0.2s



       Symmetry analysis of molecular orbitals - alpha
       -----------------------------------------------

  Numbering of irreducible representations: 

     1 a'          2 a"      

  Orbital symmetries:

     1 a'          2 a'          3 a'          4 a"          5 a'      
     6 a'          7 a'      


       Symmetry analysis of molecular orbitals - beta
       ----------------------------------------------

  Numbering of irreducible representations: 

     1 a'          2 a"      

  Orbital symmetries:

     1 a'          2 a'          3 a'          4 a'          5 a"      
     6 a'          7 a'      

          Final alpha eigenvalues
          -----------------------

              1      
    1  -21.0354
    2   -1.9160
    3   -1.1493
    4   -1.1093
    5   -1.0780
    6    0.0543
    7    0.1301

          Final beta eigenvalues
          ----------------------

              1      
    1  -21.0044
    2   -1.7453
    3   -1.1034
    4   -1.0180
    5   -0.2210
    6    0.0862
    7    0.1466

                    UHF Final Alpha Molecular Orbital Analysis
                    ------------------------------------------

 Vector    2  Occ=1.000000E+00  E=-1.916007E+00  Symmetry=a'
              MO Center= -3.7E-02,  1.9E-15,  1.3E-17, r^2= 4.7E-01
   Bfn.  Coefficient  Atom+Function         Bfn.  Coefficient  Atom+Function  
  ----- ------------  ---------------      ----- ------------  ---------------
     2      0.917901  1 O  s                  1     -0.244878  1 O  s          
     3     -0.177806  1 O  px         

 Vector    3  Occ=1.000000E+00  E=-1.149298E+00  Symmetry=a'
              MO Center= -4.6E-02, -1.4E-15, -2.2E-30, r^2= 6.9E-01
   Bfn.  Coefficient  Atom+Function         Bfn.  Coefficient  Atom+Function  
  ----- ------------  ---------------      ----- ------------  ---------------
     4      0.765228  1 O  py                 6      0.324069  2 H  s          
     7     -0.324069  3 H  s          

 Vector    4  Occ=1.000000E+00  E=-1.109266E+00  Symmetry=a"
              MO Center=  1.4E-01, -3.3E-17, -3.1E-16, r^2= 4.2E-01
   Bfn.  Coefficient  Atom+Function         Bfn.  Coefficient  Atom+Function  
  ----- ------------  ---------------      ----- ------------  ---------------
     5      1.000000  1 O  pz         

 Vector    5  Occ=1.000000E+00  E=-1.078029E+00  Symmetry=a'
              MO Center=  1.9E-01, -6.1E-16,  3.0E-16, r^2= 5.8E-01
   Bfn.  Coefficient  Atom+Function         Bfn.  Coefficient  Atom+Function  
  ----- ------------  ---------------      ----- ------------  ---------------
     3      0.818861  1 O  px                 2      0.449361  1 O  s          
     7     -0.215021  3 H  s                  6     -0.215021  2 H  s          

 Vector    6  Occ=0.000000E+00  E= 5.428245E-02  Symmetry=a'
              MO Center= -5.1E-01, -2.1E-15, -3.6E-19, r^2= 1.1E+00
   Bfn.  Coefficient  Atom+Function         Bfn.  Coefficient  Atom+Function  
  ----- ------------  ---------------      ----- ------------  ---------------
     7      0.788647  3 H  s                  6      0.788647  2 H  s          
     2     -0.767915  1 O  s                  3      0.700791  1 O  px         

 Vector    7  Occ=0.000000E+00  E= 1.301392E-01  Symmetry=a'
              MO Center= -4.0E-01,  2.2E-15,  1.3E-33, r^2= 1.1E+00
   Bfn.  Coefficient  Atom+Function         Bfn.  Coefficient  Atom+Function  
  ----- ------------  ---------------      ----- ------------  ---------------
     6      0.881317  2 H  s                  7     -0.881317  3 H  s          
     4     -0.816499  1 O  py         


                     UHF Final Beta Molecular Orbital Analysis
                     -----------------------------------------

 Vector    2  Occ=1.000000E+00  E=-1.745306E+00  Symmetry=a'
              MO Center= -8.6E-02, -2.3E-16, -5.1E-17, r^2= 5.1E-01
   Bfn.  Coefficient  Atom+Function         Bfn.  Coefficient  Atom+Function  
  ----- ------------  ---------------      ----- ------------  ---------------
     2      0.850081  1 O  s                  1     -0.231431  1 O  s          
     3     -0.185444  1 O  px         

 Vector    3  Occ=1.000000E+00  E=-1.103356E+00  Symmetry=a'
              MO Center= -8.8E-02, -1.7E-16, -2.5E-32, r^2= 7.4E-01
   Bfn.  Coefficient  Atom+Function         Bfn.  Coefficient  Atom+Function  
  ----- ------------  ---------------      ----- ------------  ---------------
     4      0.716752  1 O  py                 7     -0.374470  3 H  s          
     6      0.374470  2 H  s          

 Vector    4  Occ=1.000000E+00  E=-1.018020E+00  Symmetry=a'
              MO Center=  2.2E-01,  1.5E-16,  3.7E-16, r^2= 5.8E-01
   Bfn.  Coefficient  Atom+Function         Bfn.  Coefficient  Atom+Function  
  ----- ------------  ---------------      ----- ------------  ---------------
     3      0.792761  1 O  px                 2      0.516194  1 O  s          
     7     -0.226273  3 H  s                  6     -0.226273  2 H  s          

 Vector    5  Occ=0.000000E+00  E=-2.209946E-01  Symmetry=a"
              MO Center=  1.4E-01, -3.3E-17, -3.1E-16, r^2= 4.2E-01
   Bfn.  Coefficient  Atom+Function         Bfn.  Coefficient  Atom+Function  
  ----- ------------  ---------------      ----- ------------  ---------------
     5      1.000000  1 O  pz         

 Vector    6  Occ=0.000000E+00  E= 8.621336E-02  Symmetry=a'
              MO Center= -4.9E-01, -2.5E-15, -3.4E-18, r^2= 1.1E+00
   Bfn.  Coefficient  Atom+Function         Bfn.  Coefficient  Atom+Function  
  ----- ------------  ---------------      ----- ------------  ---------------
     2      0.803240  1 O  s                  7     -0.777852  3 H  s          
     6     -0.777852  2 H  s                  3     -0.728284  1 O  px         

 Vector    7  Occ=0.000000E+00  E= 1.466232E-01  Symmetry=a'
              MO Center= -3.6E-01,  2.9E-15,  6.1E-32, r^2= 1.1E+00
   Bfn.  Coefficient  Atom+Function         Bfn.  Coefficient  Atom+Function  
  ----- ------------  ---------------      ----- ------------  ---------------
     6      0.861111  2 H  s                  7     -0.861111  3 H  s          
     4     -0.859366  1 O  py         


 center of mass
 --------------
 x =   0.11770266 y =   0.00000000 z =   0.00000000

 moments of inertia (a.u.)
 ------------------
           3.599007890155           0.000000000000           0.000000000000
           0.000000000000           3.196225286295           0.000000000000
           0.000000000000           0.000000000000           6.795233176450

  Mulliken analysis of the total density
  --------------------------------------

    Atom       Charge   Shell Charges
 -----------   ------   -------------------------------------------------------
    1 O    8     7.86   2.00  1.91  3.95
    2 H    1     0.57   0.57
    3 H    1     0.57   0.57

  Mulliken analysis of the alpha density
  --------------------------------------

    Atom       Charge   Shell Charges
 -----------   ------   -------------------------------------------------------
    1 O    8     4.49   1.00  0.97  2.52
    2 H    1     0.25   0.25
    3 H    1     0.25   0.25

   Mulliken analysis of the beta density
   -------------------------------------

    Atom       Charge   Shell Charges
 -----------   ------   -------------------------------------------------------
    1 O    8     3.37   1.00  0.94  1.43
    2 H    1     0.32   0.32
    3 H    1     0.32   0.32

   Mulliken analysis of the spin density
   -------------------------------------

    Atom       Charge   Shell Charges
 -----------   ------   -------------------------------------------------------
    1 O    8     1.13   0.00  0.04  1.09
    2 H    1    -0.06  -0.06
    3 H    1    -0.06  -0.06

       Multipole analysis of the density wrt the origin
       ------------------------------------------------

     L   x y z        total         alpha         beta         nuclear
     -   - - -        -----         -----         ----         -------
     0   0 0 0      1.000000     -5.000000     -4.000000     10.000000

     1   1 0 0     -1.081620     -0.735736     -0.345884      0.000000
     1   0 1 0      0.000000      0.000000      0.000000      0.000000
     1   0 0 1      0.000000      0.000000      0.000000      0.000000

     2   2 0 0     -2.783223     -2.925743     -2.714331      2.856851
     2   1 1 0      0.000000      0.000000      0.000000      0.000000
     2   1 0 1      0.000000      0.000000      0.000000      0.000000
     2   0 2 0     -2.197217     -2.920089     -2.848192      3.571064
     2   0 1 1      0.000000      0.000000      0.000000      0.000000
     2   0 0 2     -3.502709     -2.178710     -1.323999      0.000000


 Parallel integral file used       1 records with       0 large values

                              NWChem Gradients Module
                              -----------------------


                      H2O+ : STO-3G UHF geometry optimization


  wavefunction    =   UHF     

  Using symmetry


                         UHF ENERGY GRADIENTS

    atom               coordinates                        gradient
                 x          y          z           x          y          z
   1 O       0.267248   0.000000   0.000000   -0.005967   0.000000   0.000000
   2 H1     -1.068990   1.336238   0.000000    0.002984  -0.064647   0.000000
   3 H2     -1.068990  -1.336238   0.000000    0.002984   0.064647   0.000000

                 ----------------------------------------
                 |  Time  |  1-e(secs)   |  2-e(secs)   |
                 ----------------------------------------
                 |  CPU   |       0.00   |       0.07   |
                 ----------------------------------------
                 |  WALL  |       0.01   |       0.07   |
                 ----------------------------------------

@ Step       Energy      Delta E   Gmax     Grms     Xrms     Xmax   Walltime
@ ---- ---------------- -------- -------- -------- -------- -------- --------
@    0     -74.65375452  0.0E+00  0.04782  0.04646  0.00000  0.00000      1.9
                                                       ok       ok  



                                Z-matrix (autoz)
                                -------- 

 Units are Angstrom for bonds and degrees for angles

      Type          Name      I     J     K     L     M      Value     Gradient
      ----------- --------  ----- ----- ----- ----- ----- ---------- ----------
    1 Stretch                  1     2                       1.00000   -0.04782
    2 Stretch                  1     3                       1.00000   -0.04782
    3 Bend                     2     1     3                90.00000   -0.04360

 Restricting large step in mode    1 eval= 4.8E-02 step= 9.1E-01 new= 3.0E-01
                                 NWChem SCF Module
                                 -----------------


                      H2O+ : STO-3G UHF geometry optimization



  ao basis        = "ao basis"
  functions       =     7
  atoms           =     3
  alpha electrons =     5
  beta  electrons =     4
  charge          =   1.00
  wavefunction    = UHF 
  input vectors   = ./H2O_freq.movecs
  output vectors  = ./H2O_freq.movecs
  use symmetry    = T
  symmetry adapt  = T


 Summary of "ao basis" -> "ao basis" (cartesian)
 ------------------------------------------------------------------------------
       Tag                 Description            Shells   Functions and Types
 ---------------- ------------------------------  ------  ---------------------
 O                           sto-3g                  3        5   2s1p
 H1                          sto-3g                  1        1   1s
 H2                          sto-3g                  1        1   1s


      Symmetry analysis of basis
      --------------------------

        a'          6
        a"          1


 Forming initial guess at       1.9s


 Loading old vectors from job with title :

H2O+ : STO-3G UHF geometry optimization


   Symmetry analysis of molecular orbitals - initial alpha
   -------------------------------------------------------

  Numbering of irreducible representations: 

     1 a'          2 a"      

  Orbital symmetries:

     1 a'          2 a'          3 a'          4 a"          5 a'      
     6 a'          7 a'      


   Symmetry analysis of molecular orbitals - initial beta
   ------------------------------------------------------

  Numbering of irreducible representations: 

     1 a'          2 a"      

  Orbital symmetries:

     1 a'          2 a'          3 a'          4 a'          5 a"      
     6 a'          7 a'      


 Starting SCF solution at       2.0s



 ----------------------------------------------
         Quadratically convergent UHF

 Convergence threshold     :          1.000E-04
 Maximum no. of iterations :           20
 Integral*density screening:          1.000E-07
 ----------------------------------------------


 #quartets = 1.200E+02 #integrals = 2.560E+02 #direct =  0.0% #cached =100.0%


 Integral file          = ./H2O_freq.aoints.0
 Record size in doubles =  65536        No. of integs per rec  =  43688
 Max. records in memory =      2        Max. records in file   =   3569
 No. of bits per label  =      8        No. of bits per value  =     64


              iter       energy          gnorm     gmax       time
             ----- ------------------- --------- --------- --------
                 1      -74.6635636971  5.81E-02  3.69E-02      0.9
                 2      -74.6637928715  1.51E-03  1.19E-03      0.9
                 3      -74.6637937546  4.19E-06  3.37E-06      1.0


       Final UHF  results 
       ------------------ 

         Total SCF energy =    -74.663793754588
      One electron energy =   -114.956748566839
      Two electron energy =     32.100686746293
 Nuclear repulsion energy =      8.192268065958

                       Sz =      0.5000
                 Sz(Sz+1) =      0.7500
                      S^2 =      0.7603

        Time for solution =      0.2s



       Symmetry analysis of molecular orbitals - alpha
       -----------------------------------------------

  Numbering of irreducible representations: 

     1 a'          2 a"      

  Orbital symmetries:

     1 a'          2 a'          3 a'          4 a"          5 a'      
     6 a'          7 a'      


       Symmetry analysis of molecular orbitals - beta
       ----------------------------------------------

  Numbering of irreducible representations: 

     1 a'          2 a"      

  Orbital symmetries:

     1 a'          2 a'          3 a'          4 a'          5 a"      
     6 a'          7 a'      

          Final alpha eigenvalues
          -----------------------

              1      
    1  -20.9998
    2   -1.8571
    3   -1.1100
    4   -1.0793
    5   -1.0304
    6    0.0037
    7    0.0858

          Final beta eigenvalues
          ----------------------

              1      
    1  -20.9681
    2   -1.6782
    3   -1.0626
    4   -0.9698
    5   -0.1896
    6    0.0302
    7    0.1035

                    UHF Final Alpha Molecular Orbital Analysis
                    ------------------------------------------

 Vector    2  Occ=1.000000E+00  E=-1.857131E+00  Symmetry=a'
              MO Center= -1.0E-02, -1.2E-08,  6.0E-17, r^2= 4.8E-01
   Bfn.  Coefficient  Atom+Function         Bfn.  Coefficient  Atom+Function  
  ----- ------------  ---------------      ----- ------------  ---------------
     2      0.939410  1 O  s                  1     -0.248378  1 O  s          

 Vector    3  Occ=1.000000E+00  E=-1.109990E+00  Symmetry=a'
              MO Center= -5.4E-02, -6.3E-09,  8.2E-24, r^2= 7.3E-01
   Bfn.  Coefficient  Atom+Function         Bfn.  Coefficient  Atom+Function  
  ----- ------------  ---------------      ----- ------------  ---------------
     4      0.762640  1 O  py                 7     -0.318211  3 H  s          
     6      0.318211  2 H  s          

 Vector    4  Occ=1.000000E+00  E=-1.079296E+00  Symmetry=a"
              MO Center=  1.4E-01, -7.7E-09, -3.1E-16, r^2= 4.2E-01
   Bfn.  Coefficient  Atom+Function         Bfn.  Coefficient  Atom+Function  
  ----- ------------  ---------------      ----- ------------  ---------------
     5      1.000000  1 O  pz         

 Vector    5  Occ=1.000000E+00  E=-1.030381E+00  Symmetry=a'
              MO Center=  1.7E-01, -2.1E-09,  2.5E-16, r^2= 5.9E-01
   Bfn.  Coefficient  Atom+Function         Bfn.  Coefficient  Atom+Function  
  ----- ------------  ---------------      ----- ------------  ---------------
     3      0.845211  1 O  px                 2      0.384297  1 O  s          
     6     -0.213966  2 H  s                  7     -0.213966  3 H  s          

 Vector    6  Occ=0.000000E+00  E= 3.652283E-03  Symmetry=a'
              MO Center= -5.1E-01,  1.7E-07,  3.8E-19, r^2= 1.2E+00
   Bfn.  Coefficient  Atom+Function         Bfn.  Coefficient  Atom+Function  
  ----- ------------  ---------------      ----- ------------  ---------------
     6      0.767013  2 H  s                  7      0.767013  3 H  s          
     2     -0.683806  1 O  s                  3      0.630177  1 O  px         

 Vector    7  Occ=0.000000E+00  E= 8.580302E-02  Symmetry=a'
              MO Center= -3.9E-01, -1.7E-07, -1.9E-24, r^2= 1.2E+00
   Bfn.  Coefficient  Atom+Function         Bfn.  Coefficient  Atom+Function  
  ----- ------------  ---------------      ----- ------------  ---------------
     7      0.818620  3 H  s                  6     -0.818620  2 H  s          
     4      0.798149  1 O  py         


                     UHF Final Beta Molecular Orbital Analysis
                     -----------------------------------------

 Vector    2  Occ=1.000000E+00  E=-1.678237E+00  Symmetry=a'
              MO Center= -5.2E-02, -1.4E-08,  3.5E-18, r^2= 5.3E-01
   Bfn.  Coefficient  Atom+Function         Bfn.  Coefficient  Atom+Function  
  ----- ------------  ---------------      ----- ------------  ---------------
     2      0.878897  1 O  s                  1     -0.235915  1 O  s          

 Vector    3  Occ=1.000000E+00  E=-1.062590E+00  Symmetry=a'
              MO Center= -1.1E-01, -1.9E-09,  9.7E-24, r^2= 8.1E-01
   Bfn.  Coefficient  Atom+Function         Bfn.  Coefficient  Atom+Function  
  ----- ------------  ---------------      ----- ------------  ---------------
     4      0.702040  1 O  py                 7     -0.377400  3 H  s          
     6      0.377400  2 H  s          

 Vector    4  Occ=1.000000E+00  E=-9.698455E-01  Symmetry=a'
              MO Center=  1.8E-01,  3.5E-10,  3.1E-16, r^2= 6.2E-01
   Bfn.  Coefficient  Atom+Function         Bfn.  Coefficient  Atom+Function  
  ----- ------------  ---------------      ----- ------------  ---------------
     3      0.812301  1 O  px                 2      0.455595  1 O  s          
     6     -0.239206  2 H  s                  7     -0.239206  3 H  s          

 Vector    5  Occ=0.000000E+00  E=-1.896056E-01  Symmetry=a"
              MO Center=  1.4E-01, -7.7E-09, -3.1E-16, r^2= 4.2E-01
   Bfn.  Coefficient  Atom+Function         Bfn.  Coefficient  Atom+Function  
  ----- ------------  ---------------      ----- ------------  ---------------
     5      1.000000  1 O  pz         

 Vector    6  Occ=0.000000E+00  E= 3.024592E-02  Symmetry=a'
              MO Center= -4.8E-01,  1.9E-07, -4.0E-18, r^2= 1.2E+00
   Bfn.  Coefficient  Atom+Function         Bfn.  Coefficient  Atom+Function  
  ----- ------------  ---------------      ----- ------------  ---------------
     6      0.751652  2 H  s                  7      0.751651  3 H  s          
     2     -0.719622  1 O  s                  3      0.671701  1 O  px         

 Vector    7  Occ=0.000000E+00  E= 1.035164E-01  Symmetry=a'
              MO Center= -3.4E-01, -1.9E-07, -4.8E-24, r^2= 1.2E+00
   Bfn.  Coefficient  Atom+Function         Bfn.  Coefficient  Atom+Function  
  ----- ------------  ---------------      ----- ------------  ---------------
     4      0.851940  1 O  py                 7      0.793073  3 H  s          
     6     -0.793073  2 H  s          


 center of mass
 --------------
 x =   0.10825497 y =  -0.00000001 z =   0.00000000

 moments of inertia (a.u.)
 ------------------
           4.825202006917           0.000000075076           0.000000000000
           0.000000075076           3.115272031135           0.000000000000
           0.000000000000           0.000000000000           7.940474038052

  Mulliken analysis of the total density
  --------------------------------------

    Atom       Charge   Shell Charges
 -----------   ------   -------------------------------------------------------
    1 O    8     7.85   2.00  1.90  3.95
    2 H    1     0.58   0.58
    3 H    1     0.58   0.58

  Mulliken analysis of the alpha density
  --------------------------------------

    Atom       Charge   Shell Charges
 -----------   ------   -------------------------------------------------------
    1 O    8     4.50   1.00  0.97  2.53
    2 H    1     0.25   0.25
    3 H    1     0.25   0.25

   Mulliken analysis of the beta density
   -------------------------------------

    Atom       Charge   Shell Charges
 -----------   ------   -------------------------------------------------------
    1 O    8     3.35   1.00  0.94  1.41
    2 H    1     0.33   0.33
    3 H    1     0.33   0.33

   Mulliken analysis of the spin density
   -------------------------------------

    Atom       Charge   Shell Charges
 -----------   ------   -------------------------------------------------------
    1 O    8     1.16   0.00  0.03  1.12
    2 H    1    -0.08  -0.08
    3 H    1    -0.08  -0.08

       Multipole analysis of the density wrt the origin
       ------------------------------------------------

     L   x y z        total         alpha         beta         nuclear
     -   - - -        -----         -----         ----         -------
     0   0 0 0      1.000000     -5.000000     -4.000000     10.000000

     1   1 0 0     -1.072398     -0.702091     -0.290832     -0.079476
     1   0 1 0      0.000000      0.000000      0.000000      0.000000
     1   0 0 1      0.000000      0.000000      0.000000      0.000000

     2   2 0 0     -2.835799     -2.895363     -2.725561      2.785125
     2   1 1 0      0.000000      0.000000      0.000000      0.000000
     2   1 0 1      0.000000      0.000000      0.000000      0.000000
     2   0 2 0     -1.562717     -3.143907     -3.206548      4.787738
     2   0 1 1      0.000000      0.000000      0.000000      0.000000
     2   0 0 2     -3.524444     -2.184224     -1.340220      0.000000


 Parallel integral file used       1 records with       0 large values

 Line search: 
     step= 1.00 grad=-2.7E-02 hess= 1.7E-02 energy=    -74.663794 mode=downhill
 new step= 0.80                   predicted energy=    -74.664469

          --------
          Step   1
          --------


                         Geometry "geometry" -> "geometry"
                         ---------------------------------

 Output coordinates in angstroms (scale by  1.889725989 to convert to a.u.)

  No.       Tag          Charge          X              Y              Z
 ---- ---------------- ---------- -------------- -------------- --------------
    1 O                    8.0000     0.13733291    -0.00000001     0.00000000
    2 H1                   1.0000    -0.56364121     0.79608488     0.00000000
    3 H2                   1.0000    -0.56364120    -0.79608488     0.00000000

      Atomic Mass 
      ----------- 

      O                 15.994910
      H1                 1.007825
      H2                 1.007825


 Effective nuclear repulsion energy (a.u.)       8.3145608756

            Nuclear Dipole moment (a.u.) 
            ----------------------------
        X                 Y               Z
 ---------------- ---------------- ----------------
    -0.0540822586    -0.0000000826     0.0000000000

      Symmetry information
      --------------------

 Group name             Cs        
 Group number              2
 Group order               2
 No. of unique centers     3

      Symmetry unique atoms

     1    2    3

                                 NWChem SCF Module
                                 -----------------


                      H2O+ : STO-3G UHF geometry optimization



  ao basis        = "ao basis"
  functions       =     7
  atoms           =     3
  alpha electrons =     5
  beta  electrons =     4
  charge          =   1.00
  wavefunction    = UHF 
  input vectors   = ./H2O_freq.movecs
  output vectors  = ./H2O_freq.movecs
  use symmetry    = T
  symmetry adapt  = T


 Summary of "ao basis" -> "ao basis" (cartesian)
 ------------------------------------------------------------------------------
       Tag                 Description            Shells   Functions and Types
 ---------------- ------------------------------  ------  ---------------------
 O                           sto-3g                  3        5   2s1p
 H1                          sto-3g                  1        1   1s
 H2                          sto-3g                  1        1   1s


      Symmetry analysis of basis
      --------------------------

        a'          6
        a"          1


 Forming initial guess at       2.9s


 Loading old vectors from job with title :

H2O+ : STO-3G UHF geometry optimization


   Symmetry analysis of molecular orbitals - initial alpha
   -------------------------------------------------------

  Numbering of irreducible representations: 

     1 a'          2 a"      

  Orbital symmetries:

     1 a'          2 a'          3 a'          4 a"          5 a'      
     6 a'          7 a'      


   Symmetry analysis of molecular orbitals - initial beta
   ------------------------------------------------------

  Numbering of irreducible representations: 

     1 a'          2 a"      

  Orbital symmetries:

     1 a'          2 a'          3 a'          4 a'          5 a"      
     6 a'          7 a'      


 Starting SCF solution at       2.9s



 ----------------------------------------------
         Quadratically convergent UHF

 Convergence threshold     :          1.000E-04
 Maximum no. of iterations :           20
 Integral*density screening:          1.000E-07
 ----------------------------------------------


 #quartets = 1.200E+02 #integrals = 2.560E+02 #direct =  0.0% #cached =100.0%


 Integral file          = ./H2O_freq.aoints.0
 Record size in doubles =  65536        No. of integs per rec  =  43688
 Max. records in memory =      2        Max. records in file   =   3569
 No. of bits per label  =      8        No. of bits per value  =     64


              iter       energy          gnorm     gmax       time
             ----- ------------------- --------- --------- --------
                 1      -74.6641698629  1.09E-02  7.01E-03      1.2
                 2      -74.6641790878  7.79E-05  4.59E-05      1.2


       Final UHF  results 
       ------------------ 

         Total SCF energy =    -74.664179087840
      One electron energy =   -115.121889128434
      Two electron energy =     32.143149164948
 Nuclear repulsion energy =      8.314560875647

                       Sz =      0.5000
                 Sz(Sz+1) =      0.7500
                      S^2 =      0.7594

        Time for solution =      0.2s



       Symmetry analysis of molecular orbitals - alpha
       -----------------------------------------------

  Numbering of irreducible representations: 

     1 a'          2 a"      

  Orbital symmetries:

     1 a'          2 a'          3 a'          4 a"          5 a'      
     6 a'          7 a'      


       Symmetry analysis of molecular orbitals - beta
       ----------------------------------------------

  Numbering of irreducible representations: 

     1 a'          2 a"      

  Orbital symmetries:

     1 a'          2 a'          3 a'          4 a'          5 a"      
     6 a'          7 a'      

          Final alpha eigenvalues
          -----------------------

              1      
    1  -21.0072
    2   -1.8681
    3   -1.1181
    4   -1.0853
    5   -1.0398
    6    0.0140
    7    0.0937

          Final beta eigenvalues
          ----------------------

              1      
    1  -20.9756
    2   -1.6909
    3   -1.0710
    4   -0.9796
    5   -0.1959
    6    0.0418
    7    0.1111

                    UHF Final Alpha Molecular Orbital Analysis
                    ------------------------------------------

 Vector    2  Occ=1.000000E+00  E=-1.868128E+00  Symmetry=a'
              MO Center= -1.5E-02, -9.8E-09,  5.1E-17, r^2= 4.8E-01
   Bfn.  Coefficient  Atom+Function         Bfn.  Coefficient  Atom+Function  
  ----- ------------  ---------------      ----- ------------  ---------------
     2      0.935431  1 O  s                  1     -0.247730  1 O  s          

 Vector    3  Occ=1.000000E+00  E=-1.118061E+00  Symmetry=a'
              MO Center= -5.2E-02, -4.6E-09,  6.9E-24, r^2= 7.2E-01
   Bfn.  Coefficient  Atom+Function         Bfn.  Coefficient  Atom+Function  
  ----- ------------  ---------------      ----- ------------  ---------------
     4      0.762845  1 O  py                 7     -0.319261  3 H  s          
     6      0.319261  2 H  s          

 Vector    4  Occ=1.000000E+00  E=-1.085288E+00  Symmetry=a"
              MO Center=  1.4E-01, -6.2E-09, -3.1E-16, r^2= 4.2E-01
   Bfn.  Coefficient  Atom+Function         Bfn.  Coefficient  Atom+Function  
  ----- ------------  ---------------      ----- ------------  ---------------
     5      1.000000  1 O  pz         

 Vector    5  Occ=1.000000E+00  E=-1.039761E+00  Symmetry=a'
              MO Center=  1.7E-01, -1.8E-09,  2.6E-16, r^2= 5.9E-01
   Bfn.  Coefficient  Atom+Function         Bfn.  Coefficient  Atom+Function  
  ----- ------------  ---------------      ----- ------------  ---------------
     3      0.839864  1 O  px                 2      0.397010  1 O  s          
     6     -0.214653  2 H  s                  7     -0.214653  3 H  s          

 Vector    6  Occ=0.000000E+00  E= 1.397793E-02  Symmetry=a'
              MO Center= -5.1E-01,  1.4E-07,  1.8E-19, r^2= 1.2E+00
   Bfn.  Coefficient  Atom+Function         Bfn.  Coefficient  Atom+Function  
  ----- ------------  ---------------      ----- ------------  ---------------
     6      0.770946  2 H  s                  7      0.770946  3 H  s          
     2     -0.699830  1 O  s                  3      0.644397  1 O  px         

 Vector    7  Occ=0.000000E+00  E= 9.366375E-02  Symmetry=a'
              MO Center= -4.0E-01, -1.4E-07, -1.6E-24, r^2= 1.2E+00
   Bfn.  Coefficient  Atom+Function         Bfn.  Coefficient  Atom+Function  
  ----- ------------  ---------------      ----- ------------  ---------------
     7      0.829528  3 H  s                  6     -0.829528  2 H  s          
     4      0.801986  1 O  py         


                     UHF Final Beta Molecular Orbital Analysis
                     -----------------------------------------

 Vector    2  Occ=1.000000E+00  E=-1.690935E+00  Symmetry=a'
              MO Center= -5.8E-02, -1.1E-08, -6.9E-18, r^2= 5.2E-01
   Bfn.  Coefficient  Atom+Function         Bfn.  Coefficient  Atom+Function  
  ----- ------------  ---------------      ----- ------------  ---------------
     2      0.873530  1 O  s                  1     -0.235081  1 O  s          
     3     -0.152565  1 O  px         

 Vector    3  Occ=1.000000E+00  E=-1.071029E+00  Symmetry=a'
              MO Center= -1.0E-01, -1.0E-09,  8.0E-24, r^2= 8.0E-01
   Bfn.  Coefficient  Atom+Function         Bfn.  Coefficient  Atom+Function  
  ----- ------------  ---------------      ----- ------------  ---------------
     4      0.704947  1 O  py                 7     -0.376439  3 H  s          
     6      0.376439  2 H  s          

 Vector    4  Occ=1.000000E+00  E=-9.796001E-01  Symmetry=a'
              MO Center=  1.9E-01, -2.6E-10,  3.2E-16, r^2= 6.1E-01
   Bfn.  Coefficient  Atom+Function         Bfn.  Coefficient  Atom+Function  
  ----- ------------  ---------------      ----- ------------  ---------------
     3      0.808558  1 O  px                 2      0.467405  1 O  s          
     6     -0.236725  2 H  s                  7     -0.236725  3 H  s          

 Vector    5  Occ=0.000000E+00  E=-1.959169E-01  Symmetry=a"
              MO Center=  1.4E-01, -6.2E-09, -3.1E-16, r^2= 4.2E-01
   Bfn.  Coefficient  Atom+Function         Bfn.  Coefficient  Atom+Function  
  ----- ------------  ---------------      ----- ------------  ---------------
     5      1.000000  1 O  pz         

 Vector    6  Occ=0.000000E+00  E= 4.178714E-02  Symmetry=a'
              MO Center= -4.8E-01,  1.6E-07, -3.9E-18, r^2= 1.2E+00
   Bfn.  Coefficient  Atom+Function         Bfn.  Coefficient  Atom+Function  
  ----- ------------  ---------------      ----- ------------  ---------------
     6      0.756628  2 H  s                  7      0.756628  3 H  s          
     2     -0.735533  1 O  s                  3      0.682595  1 O  px         

 Vector    7  Occ=0.000000E+00  E= 1.111449E-01  Symmetry=a'
              MO Center= -3.5E-01, -1.6E-07, -4.0E-24, r^2= 1.1E+00
   Bfn.  Coefficient  Atom+Function         Bfn.  Coefficient  Atom+Function  
  ----- ------------  ---------------      ----- ------------  ---------------
     4      0.853326  1 O  py                 7      0.805195  3 H  s          
     6     -0.805194  2 H  s          


 center of mass
 --------------
 x =   0.11127362 y =  -0.00000001 z =   0.00000000

 moments of inertia (a.u.)
 ------------------
           4.561750667066           0.000000060032           0.000000000000
           0.000000060032           3.141024636562           0.000000000000
           0.000000000000           0.000000000000           7.702775303628

  Mulliken analysis of the total density
  --------------------------------------

    Atom       Charge   Shell Charges
 -----------   ------   -------------------------------------------------------
    1 O    8     7.85   2.00  1.91  3.95
    2 H    1     0.58   0.58
    3 H    1     0.58   0.58

  Mulliken analysis of the alpha density
  --------------------------------------

    Atom       Charge   Shell Charges
 -----------   ------   -------------------------------------------------------
    1 O    8     4.50   1.00  0.97  2.53
    2 H    1     0.25   0.25
    3 H    1     0.25   0.25

   Mulliken analysis of the beta density
   -------------------------------------

    Atom       Charge   Shell Charges
 -----------   ------   -------------------------------------------------------
    1 O    8     3.35   1.00  0.94  1.42
    2 H    1     0.33   0.33
    3 H    1     0.33   0.33

   Mulliken analysis of the spin density
   -------------------------------------

    Atom       Charge   Shell Charges
 -----------   ------   -------------------------------------------------------
    1 O    8     1.15   0.00  0.03  1.11
    2 H    1    -0.07  -0.07
    3 H    1    -0.07  -0.07

       Multipole analysis of the density wrt the origin
       ------------------------------------------------

     L   x y z        total         alpha         beta         nuclear
     -   - - -        -----         -----         ----         -------
     0   0 0 0      1.000000     -5.000000     -4.000000     10.000000

     1   1 0 0     -1.073645     -0.713673     -0.305890     -0.054082
     1   0 1 0      0.000000      0.000000      0.000000      0.000000
     1   0 0 1      0.000000      0.000000      0.000000      0.000000

     2   2 0 0     -2.825017     -2.906192     -2.726630      2.807804
     2   1 1 0      0.000000      0.000000      0.000000      0.000000
     2   1 0 1      0.000000      0.000000      0.000000      0.000000
     2   0 2 0     -1.700551     -3.098343     -3.128540      4.526332
     2   0 1 1      0.000000      0.000000      0.000000      0.000000
     2   0 0 2     -3.520636     -2.183530     -1.337106      0.000000


 Parallel integral file used       1 records with       0 large values

                              NWChem Gradients Module
                              -----------------------


                      H2O+ : STO-3G UHF geometry optimization


  wavefunction    =   UHF     

  Using symmetry


                         UHF ENERGY GRADIENTS

    atom               coordinates                        gradient
                 x          y          z           x          y          z
   1 O       0.259522   0.000000   0.000000    0.058598   0.000000   0.000000
   2 H1     -1.065127   1.504382   0.000000   -0.029299   0.001626   0.000000
   3 H2     -1.065127  -1.504382   0.000000   -0.029299  -0.001626   0.000000

                 ----------------------------------------
                 |  Time  |  1-e(secs)   |  2-e(secs)   |
                 ----------------------------------------
                 |  CPU   |       0.00   |       0.07   |
                 ----------------------------------------
                 |  WALL  |       0.00   |       0.07   |
                 ----------------------------------------

  Step       Energy      Delta E   Gmax     Grms     Xrms     Xmax   Walltime
  ---- ---------------- -------- -------- -------- -------- -------- --------
@    1     -74.66417909 -1.0E-02  0.02218  0.02113  0.08087  0.17101      3.8
                                                                    



                                Z-matrix (autoz)
                                -------- 

 Units are Angstrom for bonds and degrees for angles

      Type          Name      I     J     K     L     M      Value     Gradient
      ----------- --------  ----- ----- ----- ----- ----- ---------- ----------
    1 Stretch                  1     2                       1.06071    0.02058
    2 Stretch                  1     3                       1.06071    0.02058
    3 Bend                     2     1     3                97.27043   -0.02218

 Restricting large step in mode    1 eval= 5.4E-02 step= 4.6E-01 new= 3.0E-01
                                 NWChem SCF Module
                                 -----------------


                      H2O+ : STO-3G UHF geometry optimization



  ao basis        = "ao basis"
  functions       =     7
  atoms           =     3
  alpha electrons =     5
  beta  electrons =     4
  charge          =   1.00
  wavefunction    = UHF 
  input vectors   = ./H2O_freq.movecs
  output vectors  = ./H2O_freq.movecs
  use symmetry    = T
  symmetry adapt  = T


 Summary of "ao basis" -> "ao basis" (cartesian)
 ------------------------------------------------------------------------------
       Tag                 Description            Shells   Functions and Types
 ---------------- ------------------------------  ------  ---------------------
 O                           sto-3g                  3        5   2s1p
 H1                          sto-3g                  1        1   1s
 H2                          sto-3g                  1        1   1s


      Symmetry analysis of basis
      --------------------------

        a'          6
        a"          1


 Forming initial guess at       3.9s


 Loading old vectors from job with title :

H2O+ : STO-3G UHF geometry optimization


   Symmetry analysis of molecular orbitals - initial alpha
   -------------------------------------------------------

  Numbering of irreducible representations: 

     1 a'          2 a"      

  Orbital symmetries:

     1 a'          2 a'          3 a'          4 a"          5 a'      
     6 a'          7 a'      


   Symmetry analysis of molecular orbitals - initial beta
   ------------------------------------------------------

  Numbering of irreducible representations: 

     1 a'          2 a"      

  Orbital symmetries:

     1 a'          2 a'          3 a'          4 a'          5 a"      
     6 a'          7 a'      


 Starting SCF solution at       3.9s



 ----------------------------------------------
         Quadratically convergent UHF

 Convergence threshold     :          1.000E-04
 Maximum no. of iterations :           20
 Integral*density screening:          1.000E-07
 ----------------------------------------------


 #quartets = 1.200E+02 #integrals = 2.560E+02 #direct =  0.0% #cached =100.0%


 Integral file          = ./H2O_freq.aoints.0
 Record size in doubles =  65536        No. of integs per rec  =  43688
 Max. records in memory =      2        Max. records in file   =   3569
 No. of bits per label  =      8        No. of bits per value  =     64


              iter       energy          gnorm     gmax       time
             ----- ------------------- --------- --------- --------
                 1      -74.6683148389  5.70E-02  3.94E-02      1.5
                 2      -74.6693518047  2.76E-03  1.54E-03      1.5
                 3      -74.6693542510  2.51E-06  1.65E-06      1.6


       Final UHF  results 
       ------------------ 

         Total SCF energy =    -74.669354251032
      One electron energy =   -115.496003063424
      Two electron energy =     32.295305632671
 Nuclear repulsion energy =      8.531343179721

                       Sz =      0.5000
                 Sz(Sz+1) =      0.7500
                      S^2 =      0.7576

        Time for solution =      0.2s



       Symmetry analysis of molecular orbitals - alpha
       -----------------------------------------------

  Numbering of irreducible representations: 

     1 a'          2 a"      

  Orbital symmetries:

     1 a'          2 a'          3 a'          4 a"          5 a'      
     6 a'          7 a'      


       Symmetry analysis of molecular orbitals - beta
       ----------------------------------------------

  Numbering of irreducible representations: 

     1 a'          2 a"      

  Orbital symmetries:

     1 a'          2 a'          3 a'          4 a'          5 a"      
     6 a'          7 a'      

          Final alpha eigenvalues
          -----------------------

              1      
    1  -21.0054
    2   -1.8758
    3   -1.1476
    4   -1.0884
    5   -1.0350
    6    0.0287
    7    0.1376

          Final beta eigenvalues
          ----------------------

              1      
    1  -20.9741
    2   -1.7001
    3   -1.1036
    4   -0.9754
    5   -0.1993
    6    0.0568
    7    0.1577

                    UHF Final Alpha Molecular Orbital Analysis
                    ------------------------------------------

 Vector    2  Occ=1.000000E+00  E=-1.875767E+00  Symmetry=a'
              MO Center= -6.4E-02,  7.9E-09,  5.2E-17, r^2= 4.8E-01
   Bfn.  Coefficient  Atom+Function         Bfn.  Coefficient  Atom+Function  
  ----- ------------  ---------------      ----- ------------  ---------------
     2      0.931817  1 O  s                  1     -0.247562  1 O  s          

 Vector    3  Occ=1.000000E+00  E=-1.147552E+00  Symmetry=a'
              MO Center= -9.3E-02,  2.0E-09, -4.5E-24, r^2= 7.3E-01
   Bfn.  Coefficient  Atom+Function         Bfn.  Coefficient  Atom+Function  
  ----- ------------  ---------------      ----- ------------  ---------------
     4      0.746490  1 O  py                 6      0.320047  2 H  s          
     7     -0.320047  3 H  s          

 Vector    4  Occ=1.000000E+00  E=-1.088404E+00  Symmetry=a"
              MO Center=  8.3E-02,  4.9E-09, -3.0E-16, r^2= 4.2E-01
   Bfn.  Coefficient  Atom+Function         Bfn.  Coefficient  Atom+Function  
  ----- ------------  ---------------      ----- ------------  ---------------
     5      1.000000  1 O  pz         

 Vector    5  Occ=1.000000E+00  E=-1.035000E+00  Symmetry=a'
              MO Center=  1.4E-01,  2.7E-09,  2.5E-16, r^2= 5.5E-01
   Bfn.  Coefficient  Atom+Function         Bfn.  Coefficient  Atom+Function  
  ----- ------------  ---------------      ----- ------------  ---------------
     3      0.861903  1 O  px                 2      0.384596  1 O  s          
     7     -0.197841  3 H  s                  6     -0.197841  2 H  s          

 Vector    6  Occ=0.000000E+00  E= 2.866106E-02  Symmetry=a'
              MO Center= -5.1E-01, -8.5E-08,  2.0E-18, r^2= 1.3E+00
   Bfn.  Coefficient  Atom+Function         Bfn.  Coefficient  Atom+Function  
  ----- ------------  ---------------      ----- ------------  ---------------
     7      0.794941  3 H  s                  6      0.794941  2 H  s          
     2     -0.755910  1 O  s                  3      0.605783  1 O  px         

 Vector    7  Occ=0.000000E+00  E= 1.375885E-01  Symmetry=a'
              MO Center= -3.8E-01,  8.3E-08,  9.6E-25, r^2= 1.2E+00
   Bfn.  Coefficient  Atom+Function         Bfn.  Coefficient  Atom+Function  
  ----- ------------  ---------------      ----- ------------  ---------------
     4      0.848154  1 O  py                 6     -0.837848  2 H  s          
     7      0.837848  3 H  s          


                     UHF Final Beta Molecular Orbital Analysis
                     -----------------------------------------

 Vector    2  Occ=1.000000E+00  E=-1.700134E+00  Symmetry=a'
              MO Center= -1.0E-01,  9.1E-09, -6.3E-18, r^2= 5.2E-01
   Bfn.  Coefficient  Atom+Function         Bfn.  Coefficient  Atom+Function  
  ----- ------------  ---------------      ----- ------------  ---------------
     2      0.869649  1 O  s                  1     -0.235156  1 O  s          
     3     -0.150646  1 O  px         

 Vector    3  Occ=1.000000E+00  E=-1.103643E+00  Symmetry=a'
              MO Center= -1.3E-01, -8.7E-10, -5.2E-24, r^2= 7.9E-01
   Bfn.  Coefficient  Atom+Function         Bfn.  Coefficient  Atom+Function  
  ----- ------------  ---------------      ----- ------------  ---------------
     4      0.693913  1 O  py                 6      0.370055  2 H  s          
     7     -0.370055  3 H  s          

 Vector    4  Occ=1.000000E+00  E=-9.754429E-01  Symmetry=a'
              MO Center=  1.6E-01,  2.0E-09,  3.1E-16, r^2= 5.6E-01
   Bfn.  Coefficient  Atom+Function         Bfn.  Coefficient  Atom+Function  
  ----- ------------  ---------------      ----- ------------  ---------------
     3      0.837575  1 O  px                 2      0.447107  1 O  s          
     7     -0.215212  3 H  s                  6     -0.215212  2 H  s          

 Vector    5  Occ=0.000000E+00  E=-1.993101E-01  Symmetry=a"
              MO Center=  8.3E-02,  4.9E-09, -3.1E-16, r^2= 4.2E-01
   Bfn.  Coefficient  Atom+Function         Bfn.  Coefficient  Atom+Function  
  ----- ------------  ---------------      ----- ------------  ---------------
     5      1.000000  1 O  pz         

 Vector    6  Occ=0.000000E+00  E= 5.684339E-02  Symmetry=a'
              MO Center= -4.9E-01, -9.0E-08,  1.5E-19, r^2= 1.2E+00
   Bfn.  Coefficient  Atom+Function         Bfn.  Coefficient  Atom+Function  
  ----- ------------  ---------------      ----- ------------  ---------------
     2      0.794685  1 O  s                  7     -0.782880  3 H  s          
     6     -0.782880  2 H  s                  3     -0.638219  1 O  px         

 Vector    7  Occ=0.000000E+00  E= 1.577435E-01  Symmetry=a'
              MO Center= -3.4E-01,  9.1E-08,  2.2E-24, r^2= 1.2E+00
   Bfn.  Coefficient  Atom+Function         Bfn.  Coefficient  Atom+Function  
  ----- ------------  ---------------      ----- ------------  ---------------
     4      0.891683  1 O  py                 6     -0.816993  2 H  s          
     7      0.816993  3 H  s          


 center of mass
 --------------
 x =   0.02567578 y =   0.00000001 z =   0.00000000

 moments of inertia (a.u.)
 ------------------
           4.893701432537          -0.000000037295           0.000000000000
          -0.000000037295           2.451889973827           0.000000000000
           0.000000000000           0.000000000000           7.345591406364

  Mulliken analysis of the total density
  --------------------------------------

    Atom       Charge   Shell Charges
 -----------   ------   -------------------------------------------------------
    1 O    8     7.87   2.00  1.89  3.99
    2 H    1     0.56   0.56
    3 H    1     0.56   0.56

  Mulliken analysis of the alpha density
  --------------------------------------

    Atom       Charge   Shell Charges
 -----------   ------   -------------------------------------------------------
    1 O    8     4.50   1.00  0.96  2.54
    2 H    1     0.25   0.25
    3 H    1     0.25   0.25

   Mulliken analysis of the beta density
   -------------------------------------

    Atom       Charge   Shell Charges
 -----------   ------   -------------------------------------------------------
    1 O    8     3.37   1.00  0.92  1.44
    2 H    1     0.32   0.32
    3 H    1     0.32   0.32

   Mulliken analysis of the spin density
   -------------------------------------

    Atom       Charge   Shell Charges
 -----------   ------   -------------------------------------------------------
    1 O    8     1.14   0.00  0.04  1.10
    2 H    1    -0.07  -0.07
    3 H    1    -0.07  -0.07

       Multipole analysis of the density wrt the origin
       ------------------------------------------------

     L   x y z        total         alpha         beta         nuclear
     -   - - -        -----         -----         ----         -------
     0   0 0 0      1.000000     -5.000000     -4.000000     10.000000

     1   1 0 0     -1.068051     -0.281364     -0.012541     -0.774146
     1   0 1 0      0.000000      0.000000      0.000000      0.000000
     1   0 0 1      0.000000      0.000000      0.000000      0.000000

     2   2 0 0     -2.927566     -2.672305     -2.506741      2.251480
     2   1 1 0      0.000000      0.000000      0.000000      0.000000
     2   1 0 1      0.000000      0.000000      0.000000      0.000000
     2   0 2 0     -1.440502     -3.140997     -3.155211      4.855706
     2   0 1 1      0.000000      0.000000      0.000000      0.000000
     2   0 0 2     -3.504568     -2.177976     -1.326593      0.000000


 Parallel integral file used       1 records with       0 large values

 Line search: 
     step= 1.00 grad=-8.8E-03 hess= 3.6E-03 energy=    -74.669354 mode=downhill
 new step= 1.21                   predicted energy=    -74.669517

          --------
          Step   2
          --------


                         Geometry "geometry" -> "geometry"
                         ---------------------------------

 Output coordinates in angstroms (scale by  1.889725989 to convert to a.u.)

  No.       Tag          Charge          X              Y              Z
 ---- ---------------- ---------- -------------- -------------- --------------
    1 O                    8.0000     0.07136320     0.00000001     0.00000000
    2 H1                   1.0000    -0.53065634     0.82956435     0.00000000
    3 H2                   1.0000    -0.53065635    -0.82956435     0.00000000

      Atomic Mass 
      ----------- 

      O                 15.994910
      H1                 1.007825
      H2                 1.007825


 Effective nuclear repulsion energy (a.u.)       8.5793570806

            Nuclear Dipole moment (a.u.) 
            ----------------------------
        X                 Y               Z
 ---------------- ---------------- ----------------
    -0.9267350388     0.0000000954     0.0000000000

      Symmetry information
      --------------------

 Group name             Cs        
 Group number              2
 Group order               2
 No. of unique centers     3

      Symmetry unique atoms

     1    2    3

                                 NWChem SCF Module
                                 -----------------


                      H2O+ : STO-3G UHF geometry optimization



  ao basis        = "ao basis"
  functions       =     7
  atoms           =     3
  alpha electrons =     5
  beta  electrons =     4
  charge          =   1.00
  wavefunction    = UHF 
  input vectors   = ./H2O_freq.movecs
  output vectors  = ./H2O_freq.movecs
  use symmetry    = T
  symmetry adapt  = T


 Summary of "ao basis" -> "ao basis" (cartesian)
 ------------------------------------------------------------------------------
       Tag                 Description            Shells   Functions and Types
 ---------------- ------------------------------  ------  ---------------------
 O                           sto-3g                  3        5   2s1p
 H1                          sto-3g                  1        1   1s
 H2                          sto-3g                  1        1   1s


      Symmetry analysis of basis
      --------------------------

        a'          6
        a"          1


 Forming initial guess at       4.8s


 Loading old vectors from job with title :

H2O+ : STO-3G UHF geometry optimization


   Symmetry analysis of molecular orbitals - initial alpha
   -------------------------------------------------------

  Numbering of irreducible representations: 

     1 a'          2 a"      

  Orbital symmetries:

     1 a'          2 a'          3 a'          4 a"          5 a'      
     6 a'          7 a'      


   Symmetry analysis of molecular orbitals - initial beta
   ------------------------------------------------------

  Numbering of irreducible representations: 

     1 a'          2 a"      

  Orbital symmetries:

     1 a'          2 a'          3 a'          4 a'          5 a"      
     6 a'          7 a'      


 Starting SCF solution at       4.8s



 ----------------------------------------------
         Quadratically convergent UHF

 Convergence threshold     :          1.000E-04
 Maximum no. of iterations :           20
 Integral*density screening:          1.000E-07
 ----------------------------------------------


 #quartets = 1.200E+02 #integrals = 2.560E+02 #direct =  0.0% #cached =100.0%


 Integral file          = ./H2O_freq.aoints.0
 Record size in doubles =  65536        No. of integs per rec  =  43688
 Max. records in memory =      2        Max. records in file   =   3569
 No. of bits per label  =      8        No. of bits per value  =     64


              iter       energy          gnorm     gmax       time
             ----- ------------------- --------- --------- --------
                 1      -74.6694695723  1.23E-02  8.40E-03      1.8
                 2      -74.6695172820  8.41E-05  6.12E-05      1.9


       Final UHF  results 
       ------------------ 

         Total SCF energy =    -74.669517282036
      One electron energy =   -115.578408373422
      Two electron energy =     32.329534010833
 Nuclear repulsion energy =      8.579357080553

                       Sz =      0.5000
                 Sz(Sz+1) =      0.7500
                      S^2 =      0.7573

        Time for solution =      0.2s



       Symmetry analysis of molecular orbitals - alpha
       -----------------------------------------------

  Numbering of irreducible representations: 

     1 a'          2 a"      

  Orbital symmetries:

     1 a'          2 a'          3 a'          4 a"          5 a'      
     6 a'          7 a'      


       Symmetry analysis of molecular orbitals - beta
       ----------------------------------------------

  Numbering of irreducible representations: 

     1 a'          2 a"      

  Orbital symmetries:

     1 a'          2 a'          3 a'          4 a'          5 a"      
     6 a'          7 a'      

          Final alpha eigenvalues
          -----------------------

              1      
    1  -21.0048
    2   -1.8773
    3   -1.1539
    4   -1.0890
    5   -1.0339
    6    0.0311
    7    0.1477

          Final beta eigenvalues
          ----------------------

              1      
    1  -20.9735
    2   -1.7020
    3   -1.1105
    4   -0.9744
    5   -0.1999
    6    0.0594
    7    0.1683

                    UHF Final Alpha Molecular Orbital Analysis
                    ------------------------------------------

 Vector    2  Occ=1.000000E+00  E=-1.877331E+00  Symmetry=a'
              MO Center= -7.4E-02,  1.2E-08,  5.2E-17, r^2= 4.8E-01
   Bfn.  Coefficient  Atom+Function         Bfn.  Coefficient  Atom+Function  
  ----- ------------  ---------------      ----- ------------  ---------------
     2      0.931039  1 O  s                  1     -0.247537  1 O  s          

 Vector    3  Occ=1.000000E+00  E=-1.153903E+00  Symmetry=a'
              MO Center= -1.0E-01,  2.5E-09, -6.6E-24, r^2= 7.3E-01
   Bfn.  Coefficient  Atom+Function         Bfn.  Coefficient  Atom+Function  
  ----- ------------  ---------------      ----- ------------  ---------------
     4      0.743626  1 O  py                 6      0.319793  2 H  s          
     7     -0.319793  3 H  s          

 Vector    4  Occ=1.000000E+00  E=-1.089007E+00  Symmetry=a"
              MO Center=  7.1E-02,  7.2E-09, -3.0E-16, r^2= 4.2E-01
   Bfn.  Coefficient  Atom+Function         Bfn.  Coefficient  Atom+Function  
  ----- ------------  ---------------      ----- ------------  ---------------
     5      1.000000  1 O  pz         

 Vector    5  Occ=1.000000E+00  E=-1.033905E+00  Symmetry=a'
              MO Center=  1.3E-01,  4.0E-09,  2.5E-16, r^2= 5.4E-01
   Bfn.  Coefficient  Atom+Function         Bfn.  Coefficient  Atom+Function  
  ----- ------------  ---------------      ----- ------------  ---------------
     3      0.866595  1 O  px                 2      0.381365  1 O  s          
     7     -0.194134  3 H  s                  6     -0.194134  2 H  s          

 Vector    6  Occ=0.000000E+00  E= 3.112823E-02  Symmetry=a'
              MO Center= -5.1E-01, -1.2E-07,  2.5E-18, r^2= 1.3E+00
   Bfn.  Coefficient  Atom+Function         Bfn.  Coefficient  Atom+Function  
  ----- ------------  ---------------      ----- ------------  ---------------
     7      0.799738  3 H  s                  6      0.799738  2 H  s          
     2     -0.767962  1 O  s                  3      0.596763  1 O  px         

 Vector    7  Occ=0.000000E+00  E= 1.476687E-01  Symmetry=a'
              MO Center= -3.8E-01,  1.2E-07,  1.4E-24, r^2= 1.2E+00
   Bfn.  Coefficient  Atom+Function         Bfn.  Coefficient  Atom+Function  
  ----- ------------  ---------------      ----- ------------  ---------------
     4      0.857670  1 O  py                 6     -0.840568  2 H  s          
     7      0.840568  3 H  s          


                     UHF Final Beta Molecular Orbital Analysis
                     -----------------------------------------

 Vector    2  Occ=1.000000E+00  E=-1.701973E+00  Symmetry=a'
              MO Center= -1.1E-01,  1.4E-08, -5.9E-18, r^2= 5.2E-01
   Bfn.  Coefficient  Atom+Function         Bfn.  Coefficient  Atom+Function  
  ----- ------------  ---------------      ----- ------------  ---------------
     2      0.868750  1 O  s                  1     -0.235173  1 O  s          

 Vector    3  Occ=1.000000E+00  E=-1.110520E+00  Symmetry=a'
              MO Center= -1.4E-01, -1.8E-09, -7.7E-24, r^2= 7.9E-01
   Bfn.  Coefficient  Atom+Function         Bfn.  Coefficient  Atom+Function  
  ----- ------------  ---------------      ----- ------------  ---------------
     4      0.692026  1 O  py                 6      0.368558  2 H  s          
     7     -0.368558  3 H  s          

 Vector    4  Occ=1.000000E+00  E=-9.744433E-01  Symmetry=a'
              MO Center=  1.5E-01,  3.2E-09,  3.1E-16, r^2= 5.5E-01
   Bfn.  Coefficient  Atom+Function         Bfn.  Coefficient  Atom+Function  
  ----- ------------  ---------------      ----- ------------  ---------------
     3      0.843538  1 O  px                 2      0.442310  1 O  s          
     7     -0.210647  3 H  s                  6     -0.210647  2 H  s          

 Vector    5  Occ=0.000000E+00  E=-1.999445E-01  Symmetry=a"
              MO Center=  7.1E-02,  7.2E-09, -3.1E-16, r^2= 4.2E-01
   Bfn.  Coefficient  Atom+Function         Bfn.  Coefficient  Atom+Function  
  ----- ------------  ---------------      ----- ------------  ---------------
     5      1.000000  1 O  pz         

 Vector    6  Occ=0.000000E+00  E= 5.943271E-02  Symmetry=a'
              MO Center= -4.9E-01, -1.3E-07,  1.1E-18, r^2= 1.2E+00
   Bfn.  Coefficient  Atom+Function         Bfn.  Coefficient  Atom+Function  
  ----- ------------  ---------------      ----- ------------  ---------------
     2      0.807339  1 O  s                  7     -0.788056  3 H  s          
     6     -0.788056  2 H  s                  3     -0.628138  1 O  px         

 Vector    7  Occ=0.000000E+00  E= 1.682657E-01  Symmetry=a'
              MO Center= -3.4E-01,  1.3E-07,  3.1E-24, r^2= 1.2E+00
   Bfn.  Coefficient  Atom+Function         Bfn.  Coefficient  Atom+Function  
  ----- ------------  ---------------      ----- ------------  ---------------
     4      0.899822  1 O  py                 6     -0.820358  2 H  s          
     7      0.820358  3 H  s          


 center of mass
 --------------
 x =   0.00753669 y =   0.00000001 z =   0.00000000

 moments of inertia (a.u.)
 ------------------
           4.953508999241          -0.000000055108           0.000000000000
          -0.000000055108           2.316800094313           0.000000000000
           0.000000000000           0.000000000000           7.270309093554

  Mulliken analysis of the total density
  --------------------------------------

    Atom       Charge   Shell Charges
 -----------   ------   -------------------------------------------------------
    1 O    8     7.88   2.00  1.88  4.00
    2 H    1     0.56   0.56
    3 H    1     0.56   0.56

  Mulliken analysis of the alpha density
  --------------------------------------

    Atom       Charge   Shell Charges
 -----------   ------   -------------------------------------------------------
    1 O    8     4.51   1.00  0.96  2.55
    2 H    1     0.25   0.25
    3 H    1     0.25   0.25

   Mulliken analysis of the beta density
   -------------------------------------

    Atom       Charge   Shell Charges
 -----------   ------   -------------------------------------------------------
    1 O    8     3.37   1.00  0.92  1.45
    2 H    1     0.31   0.31
    3 H    1     0.31   0.31

   Mulliken analysis of the spin density
   -------------------------------------

    Atom       Charge   Shell Charges
 -----------   ------   -------------------------------------------------------
    1 O    8     1.13   0.00  0.04  1.09
    2 H    1    -0.07  -0.07
    3 H    1    -0.07  -0.07

       Multipole analysis of the density wrt the origin
       ------------------------------------------------

[...]
    9  -2.54723E-08 7.20720E-08 2.60487E+00-5.06561E-07 2.82129E-07-3.45671E+00 1.56969E-07 7.40496E-07-3.45124E+00
   10  -2.20470E+01 2.25687E+00-1.31622E-08 1.26194E+01 2.79773E+01-2.67415E-08 1.38891E+01-2.72275E+01-6.16390E-10 6.13364E+01
   11   2.26146E+00-1.23557E+02 4.05584E-07 1.14796E+00-2.50644E+00-7.02069E-07-4.16961E-01-3.76267E+00-6.90574E-07-9.74018E+00
   12  -1.92716E-08 2.74131E-08 2.60270E+00-2.83692E-07 1.44889E-07-3.45417E+00 2.45204E-07 1.35148E-07-3.46602E+00-3.01092E-08


             11          12
   ----- ----- ----- ----- -----
   11   4.98498E+02
   12  -2.23381E-07-3.43433E+00



          -------------------------------------------------
          NORMAL MODE EIGENVECTORS IN CARTESIAN COORDINATES
          -------------------------------------------------
                 (Frequencies expressed in cm-1)

                    1           2           3           4           5           6
 
 Frequency       -570.72       -8.09        7.11       16.90       17.81       18.69
 
           1     0.00000     0.00000     0.04798     0.00391    -0.00001     0.22419
           2     0.00000     0.00000    -0.02091     0.22834    -0.00001     0.00050
           3    -0.09966     0.00485     0.00000     0.00001     0.22656     0.00001
           4     0.00000    -0.00001     0.31707     0.02868    -0.00001     0.16616
           5     0.00000    -0.00002     0.47021     0.27356    -0.00001    -0.10542
           6     0.52764     0.81097     0.00003     0.00001     0.22585     0.00000
           7     0.00000    -0.00001     0.33876     0.03063    -0.00001     0.16149
           8     0.00000     0.00002    -0.49946     0.18437    -0.00001     0.10369
           9     0.52780    -0.49010    -0.00001     0.00002     0.33578     0.00002
          10     0.00000     0.00002    -0.51167    -0.04758    -0.00001     0.34490
          11     0.00000     0.00000    -0.03336     0.22720    -0.00001     0.00318
          12     0.52690    -0.30659    -0.00002     0.00001     0.11757     0.00001

                    7           8           9          10          11          12
 
 Frequency         25.17     1621.62     1621.81     3646.86     3789.45     3789.75
 
           1     0.00000     0.03890    -0.05416     0.00010    -0.02576    -0.06950
           2     0.00000    -0.05417    -0.03890    -0.00009    -0.06950     0.02575
           3     0.03513     0.00000     0.00000     0.00000     0.00000     0.00000
           4     0.00000     0.22114     0.30978     0.50318    -0.09616     0.67525
           5     0.00000     0.26318     0.63262    -0.27570     0.06109    -0.36874
           6    -0.07180     0.00000     0.00000     0.00000     0.00000     0.00000
           7     0.00000    -0.39903    -0.09494    -0.49185     0.51821     0.41444
           8    -0.00001     0.66782     0.01260    -0.29882     0.32029     0.24498
           9    -0.60059     0.00000     0.00000     0.00000     0.00000     0.00000
          10     0.00000    -0.43948     0.64462    -0.01285    -0.01332     0.01328
          11     0.00000    -0.07154    -0.02793     0.57590     0.72164    -0.28491
          12     0.77896     0.00000     0.00000     0.00000     0.00000     0.00000



 ----------------------------------------------------------------------------
 Normal Eigenvalue ||         Derivative Dipole Moments (debye/angs)
  Mode   [cm**-1]  ||      [d/dqX]             [d/dqY]           [d/dqZ]
 ------ ---------- || ------------------ ------------------ -----------------
    1     -570.720 ||       0.000               0.000             4.045
    2       -8.091 ||       0.000               0.000             0.023
    3        7.108 ||      -0.231               0.100             0.000
    4       16.905 ||       0.019               1.097             0.000
    5       17.814 ||       0.000               0.000             1.087
    6       18.685 ||       1.077               0.002             0.000
    7       25.170 ||       0.000               0.000             0.172
    8     1621.617 ||      -1.084               1.509             0.000
    9     1621.807 ||       1.509               1.083             0.000
   10     3646.860 ||      -0.005               0.005             0.000
   11     3789.445 ||       1.322               3.567             0.000
   12     3789.746 ||       3.566              -1.321             0.000
 ----------------------------------------------------------------------------



  
  
 ----------------------------------------------------------------------------
 Normal Eigenvalue ||                 Infra Red Intensities
  Mode   [cm**-1]  || [atomic units] [(debye/angs)**2] [(KM/mol)] [arbitrary]
 ------ ---------- || -------------- ----------------- ---------- -----------
    1     -570.720 ||    0.709176          16.361       691.340      35.166
    2       -8.091 ||    0.000022           0.001         0.021       0.001
    3        7.108 ||    0.002744           0.063         2.675       0.136
    4       16.905 ||    0.052174           1.204        50.861       2.587
    5       17.814 ||    0.051222           1.182        49.934       2.540
    6       18.685 ||    0.050262           1.160        48.998       2.492
    7       25.170 ||    0.001276           0.029         1.244       0.063
    8     1621.617 ||    0.149581           3.451       145.819       7.417
    9     1621.807 ||    0.149544           3.450       145.783       7.415
   10     3646.860 ||    0.000002           0.000         0.002       0.000
   11     3789.445 ||    0.627125          14.468       611.352      31.097
   12     3789.746 ||    0.626889          14.463       611.122      31.085
 ----------------------------------------------------------------------------





        Vibrational analysis via the FX method 
  --- with translations and rotations projected out ---
  --- via the Eckart algorithm                      ---
 Projected Nuclear Hessian trans-rot subspace norm:8.5864E-33
                         (should be close to zero!) 


From the projected analysis 
The Zero-Point Energy (Kcal/mol) =          20.69210632

 center of mass
 --------------
 x =  -0.00004762 y =   0.85034127 z =   0.00000000

 moments of inertia (a.u.)
 ------------------
           5.110482142510          -0.000624964969           0.000000000000
          -0.000624964969           5.109862419535           0.000000000000
           0.000000000000           0.000000000000          10.220344562045

 Rotational Constants
 --------------------
 A=  11.782067 cm-1  ( 16.951388 K)
 B=  11.778851 cm-1  ( 16.946761 K)
 C=   5.890230 cm-1  (  8.474537 K)


 Temperature                      =   298.15K

 Zero-Point correction to Energy  =   20.676 kcal/mol  (  0.032949 au)
 Thermal correction to Energy     =   22.456 kcal/mol  (  0.035787 au)
 Thermal correction to Enthalpy   =   23.049 kcal/mol  (  0.036730 au)

 Total Entropy                    =   48.117 cal/mol-K
   - Translational                =   34.755 cal/mol-K (mol. weight =  19.0184)
   - Rotational                   =   13.348 cal/mol-K (symmetry #  =        1)
   - Vibrational                  =    0.014 cal/mol-K

 Cv (constant volume heat capacity) =    6.056 cal/mol-K
   - Translational                  =    2.979 cal/mol-K
   - Rotational                     =    2.979 cal/mol-K
   - Vibrational                    =    0.097 cal/mol-K



          -------------------------------------------------
          NORMAL MODE EIGENVECTORS IN CARTESIAN COORDINATES
          -------------------------------------------------
             (Projected Frequencies expressed in cm-1)

                    1           2           3           4           5           6
 
 P.Frequency     -569.83        0.00        0.00        0.00        0.00        0.00
 
           1     0.00000     0.00000     0.00000     0.00000    -0.02038    -0.04415
           2     0.00000     0.00000     0.00000     0.00000     0.20524    -0.10224
           3    -0.09970     0.19974     0.09387     0.06223     0.00000     0.00000
           4     0.00000     0.00000     0.00000     0.00000     0.10036     0.19741
           5     0.00000     0.00000     0.00000     0.00000     0.42562     0.33863
           6     0.52737     0.00000     0.77830    -0.32918     0.00000     0.00000
           7     0.00000     0.00000     0.00000     0.00000     0.11011     0.21691
           8     0.00000     0.00000     0.00000     0.00000    -0.00951    -0.53187
           9     0.52745     0.00000     0.00000     0.84501     0.00000     0.00000
          10     0.00000     0.00000     0.00000     0.00000    -0.27162    -0.54676
          11     0.00000     0.00000     0.00000     0.00000     0.19966    -0.11342
          12     0.52742     0.59921    -0.49661    -0.32921     0.00000     0.00000

                    7           8           9          10          11          12
 
 P.Frequency        0.00     1621.81     1621.97     3646.86     3789.53     3789.83
 
           1     0.22409     0.04891    -0.04531     0.00009    -0.02425    -0.07004
           2    -0.00147    -0.04532    -0.04890    -0.00009    -0.07004     0.02424
           3     0.00000     0.00000     0.00000     0.00000     0.00000     0.00000
           4     0.28266     0.15498     0.34767     0.50319    -0.11071     0.67301
           5     0.10543     0.13179     0.67247    -0.27570     0.06907    -0.36733
           6     0.00000     0.00000     0.00000     0.00000     0.00000     0.00000
           7     0.28739    -0.37214    -0.17254    -0.49184     0.50913     0.42555
           8    -0.10565     0.65198     0.14534    -0.29881     0.31496     0.25181
           9     0.00000     0.00000     0.00000     0.00000     0.00000     0.00000
          10     0.10221    -0.55908     0.54403    -0.01285    -0.01358     0.01302
          11    -0.00418    -0.06456    -0.04165     0.57591     0.72761    -0.26926
          12     0.00000     0.00000     0.00000     0.00000     0.00000     0.00000



 ----------------------------------------------------------------------------
 Normal Eigenvalue ||    Projected Derivative Dipole Moments (debye/angs)
  Mode   [cm**-1]  ||      [d/dqX]             [d/dqY]           [d/dqZ]
 ------ ---------- || ------------------ ------------------ -----------------
    1     -569.829 ||       0.000               0.000             4.045
    2        0.000 ||       0.000               0.000             0.959
    3        0.000 ||       0.000               0.000             0.451
    4        0.000 ||       0.000               0.000             0.299
    5        0.000 ||      -0.098               0.986             0.000
    6        0.000 ||       0.212               0.491             0.000
    7        0.000 ||       1.076              -0.007             0.000
    8     1621.814 ||      -1.363               1.262             0.000
    9     1621.969 ||       1.262               1.362             0.000
   10     3646.860 ||      -0.005               0.005             0.000
   11     3789.529 ||       1.245               3.594             0.000
   12     3789.832 ||       3.594              -1.244             0.000
 ----------------------------------------------------------------------------



  
  
 ----------------------------------------------------------------------------
 Normal Eigenvalue ||           Projected Infra Red Intensities
  Mode   [cm**-1]  || [atomic units] [(debye/angs)**2] [(KM/mol)] [arbitrary]
 ------ ---------- || -------------- ----------------- ---------- -----------
    1     -569.829 ||    0.709115          16.360       691.280      35.162
    2        0.000 ||    0.039896           0.920        38.893       1.978
    3        0.000 ||    0.008815           0.203         8.594       0.437
    4        0.000 ||    0.003869           0.089         3.772       0.192
    5        0.000 ||    0.042545           0.982        41.475       2.110
    6        0.000 ||    0.012399           0.286        12.087       0.615
    7        0.000 ||    0.050218           1.159        48.955       2.490
    8     1621.814 ||    0.149565           3.451       145.804       7.416
    9     1621.969 ||    0.149510           3.449       145.750       7.414
   10     3646.860 ||    0.000002           0.000         0.002       0.000
   11     3789.529 ||    0.627158          14.469       611.385      31.099
   12     3789.832 ||    0.626923          14.464       611.156      31.087
 ----------------------------------------------------------------------------






 ===============================================================================
      Negative Nuclear Hessian Mode    1  Eigenvalue =   -569.83 cm**(-1)
 -------------------------------------------------------------------------------
   Raw step length:  0.486 angstroms ;  The Raw step for this mode is:
    1 O                    8.0000     0.00000000     0.00000000     0.05275658
    2 H1                   1.0000     0.00000000     0.00000000    -0.27907158
    3 H2                   1.0000     0.00000000     0.00000000    -0.27911378
    4 H3                   1.0000     0.00000000     0.00000000    -0.27909963


  Geometry after  100.0% step for mode  1; Step length =  0.486 angstroms 
   Maximum component (any atom: x,y, or z) displacement:  0.527
    1 O                    8.0000    -0.00003198     0.44998239     0.05275658
    2 H1                   1.0000     0.85319160    -0.01751044    -0.27907158
    3 H2                   1.0000    -0.83150012    -0.05525258    -0.27911378
    4 H3                   1.0000    -0.02165950     1.42268881    -0.27909963


  Geometry after -100.0% step for mode  1; Step length =  0.486 angstroms 
   Maximum component (any atom: x,y, or z) displacement:  0.527
    1 O                    8.0000    -0.00003198     0.44998239    -0.05275658
    2 H1                   1.0000     0.85319160    -0.01751044     0.27907158
    3 H2                   1.0000    -0.83150012    -0.05525258     0.27911378
    4 H3                   1.0000    -0.02165950     1.42268881     0.27909963


  Geometry after   50.0% step for mode  1; Step length =  0.243 angstroms 
   Maximum component (any atom: x,y, or z) displacement:  0.264
    1 O                    8.0000    -0.00003198     0.44998239     0.02637829
    2 H1                   1.0000     0.85319160    -0.01751044    -0.13953579
    3 H2                   1.0000    -0.83150012    -0.05525258    -0.13955689
    4 H3                   1.0000    -0.02165950     1.42268881    -0.13954982


  Geometry after  -50.0% step for mode  1; Step length =  0.243 angstroms 
   Maximum component (any atom: x,y, or z) displacement:  0.264
    1 O                    8.0000    -0.00003198     0.44998239    -0.02637829
    2 H1                   1.0000     0.85319160    -0.01751044     0.13953579
    3 H2                   1.0000    -0.83150012    -0.05525258     0.13955689
    4 H3                   1.0000    -0.02165950     1.42268881     0.13954982


  Geometry after   37.9% step for mode  1; Step length =  0.184 angstroms 
   Maximum component (any atom: x,y, or z) displacement:  0.200
    1 O                    8.0000    -0.00003198     0.44998239     0.02000445
    2 H1                   1.0000     0.85319160    -0.01751044    -0.10581945
    3 H2                   1.0000    -0.83150012    -0.05525258    -0.10583545
    4 H3                   1.0000    -0.02165950     1.42268881    -0.10583008


  Geometry after  -37.9% step for mode  1; Step length =  0.184 angstroms 
   Maximum component (any atom: x,y, or z) displacement:  0.200
    1 O                    8.0000    -0.00003198     0.44998239    -0.02000445
    2 H1                   1.0000     0.85319160    -0.01751044     0.10581945
    3 H2                   1.0000    -0.83150012    -0.05525258     0.10583545
    4 H3                   1.0000    -0.02165950     1.42268881     0.10583008


  Geometry after   19.0% step for mode  1; Step length =  0.092 angstroms 
   Maximum component (any atom: x,y, or z) displacement:  0.100
    1 O                    8.0000    -0.00003198     0.44998239     0.01000222
    2 H1                   1.0000     0.85319160    -0.01751044    -0.05290972
    3 H2                   1.0000    -0.83150012    -0.05525258    -0.05291772
    4 H3                   1.0000    -0.02165950     1.42268881    -0.05291504


  Geometry after  -19.0% step for mode  1; Step length =  0.092 angstroms 
   Maximum component (any atom: x,y, or z) displacement:  0.100
    1 O                    8.0000    -0.00003198     0.44998239    -0.01000222
    2 H1                   1.0000     0.85319160    -0.01751044     0.05290972
    3 H2                   1.0000    -0.83150012    -0.05525258     0.05291772
    4 H3                   1.0000    -0.02165950     1.42268881     0.05291504


 vib:animation  F

 Task  times  cpu:     1185.6s     wall:     1302.8s


                                NWChem Input Module
                                -------------------


 Summary of allocated global arrays
-----------------------------------
  No active global arrays



                         GA Statistics for process    0
                         ------------------------------

       create   destroy   get      put      acc     scatter   gather  read&inc
calls: 3.14e+04 3.14e+04 3.83e+06 2.90e+05 2.33e+06 5342        0        0     
number of processes/call 1.00e+00 1.00e+00 1.00e+00 1.00e+00 0.00e+00
bytes total:             7.75e+08 8.43e+07 7.48e+08 6.22e+06 0.00e+00 0.00e+00
bytes remote:            0.00e+00 0.00e+00 0.00e+00 0.00e+00 0.00e+00 0.00e+00
Max memory consumed for GA by this process: 1548928 bytes

MA_summarize_allocated_blocks: starting scan ...
MA_summarize_allocated_blocks: scan completed: 0 heap blocks, 0 stack blocks
MA usage statistics:

	allocation statistics:
					      heap	     stack
					      ----	     -----
	current number of blocks	         0	         0
	maximum number of blocks	        61	        52
	current total bytes		         0	         0
	maximum total bytes		   5900660	  76085332
	maximum total K-bytes		      5901	     76086
	maximum total M-bytes		         6	        77



                                  ACKNOWLEDGEMENT
                                  ---------------

            Please use the following acknowledgement where appropriate 
            for results obtained with NWChem:

            High Performance Computational Chemistry Group, "NWChem, A
            Computational Chemistry Package for Parallel Computers, 
            Version 4.6" (2004), Pacific Northwest National Laboratory,
            Richland, Washington 99352-0999, USA.


                                     CITATION
                                     --------

            Please use the following citation when publishing results
            obtained with NWChem:

            T. P. Straatsma, E. Apra, T. L. Windus, E. J. Bylaska, W. de Jong,
            S. Hirata, M. Valiev, M. T. Hackler, L. Pollack, R. J. Harrison,
            M. Dupuis, D. M. A. Smith, J. Nieplocha, V. Tipparaju,
            M. Krishnan, A. A. Auer, E. Brown, G. Cisneros, G. I. Fann,
            H. Fruchtl, J. Garza, K. Hirao, R. Kendall, J. A. Nichols,
            K. Tsemekhman, K. Wolinski, J. Anchell, D. Bernholdt, P. Borowski,
            T. Clark, D. Clerc, H. Dachsel, M. Deegan, K. Dyall, D. Elwood,
            E. Glendening, M. Gutowski, A. Hess, J. Jaffe, B. Johnson, J. Ju,
            R. Kobayashi, R. Kutteh, Z. Lin, R. Littlefield, X. Long, B. Meng,
            T. Nakajima, S. Niu, M. Rosing, G. Sandrone, M. Stave, H. Taylor,
            G. Thomas, J. van Lenthe, A. Wong, and Z. Zhang,
            "NWChem, A Computational Chemistry Package for Parallel Computers, 
            Version 4.6" (2004),
                      Pacific Northwest National Laboratory,
                      Richland, Washington 99352-0999, USA.



 Total times  cpu:     1509.9s     wall:     1719.2s
