/home/francesco/nwchem50/bin/nwchem, len=35
water_basis.nw, len=14
 argument  1 = water_basis.nw
                                         
                                         
 
 
              Northwest Computational Chemistry Package (NWChem) 5.0
              ------------------------------------------------------
 
 
                    Environmental Molecular Sciences Laboratory
                       Pacific Northwest National Laboratory
                                Richland, WA 99352
 
                                         
                                         
 
 
                     COPYRIGHT (C) 1994, 1995, 1996, 1997, 1998,
                   1999, 2000, 2001, 2002, 2003, 2004, 2005, 2006
                        Pacific Northwest National Laboratory,
                             Battelle Memorial Institute.
 
                            >>> All Rights Reserved <<<
 
 
                                    DISCLAIMER
                                    ----------

            This material was prepared as an account of work sponsored
            by an agency of the United States Government.  Neither the
            United States Government nor the United States Department
            of Energy, nor Battelle, nor any of their employees, MAKES
            ANY WARRANTY, EXPRESS OR IMPLIED, OR ASSUMES ANY LEGAL
            LIABILITY OR RESPONSIBILITY FOR THE ACCURACY, COMPLETENESS,
            OR USEFULNESS OF ANY INFORMATION, APPARATUS, PRODUCT,
            SOFTWARE, OR PROCESS DISCLOSED, OR REPRESENTS THAT ITS USE
            WOULD NOT INFRINGE PRIVATELY OWNED RIGHTS.


                                    LIMITED USE
                                    -----------

            This software (including any documentation) is being made
            available to you for your internal use only, solely for use
            in performance of work directly for the U.S. Federal
            Government or work under contracts with the U.S. Department
            of Energy or other U.S. Federal Government agencies.  This
            software is a version which has not yet been evaluated and
            cleared for commercialization.  Adherence to this notice
            may be necessary for the author, Battelle Memorial
            Institute, to successfully assert copyright in and
            commercialize this software. This software is not intended
            for duplication or distribution to third parties without
            the permission of the Manager of Software Products at
            Pacific Northwest National Laboratory, Richland,
            Washington, 99352.


                                  ACKNOWLEDGMENT
                                  --------------

            This software and its documentation were produced with
            Government support under Contract Number DE-AC05-76RL01830
            awarded by the United States Department of Energy.  The
            Government retains a paid-up non-exclusive, irrevocable
            worldwide license to reproduce, prepare derivative works,
            perform publicly and display publicly by or for the
            Government, including the right to distribute to other
            Government contractors.


           Job information
           ---------------

    hostname      = deb64
    program       = /home/francesco/nwchem50/bin/nwchem
    date          = Thu Jan 18 09:48:35 2007

    compiled      = Thu Sep 21 10:21:04 PDT 2006
    source        = /home/d3p307/nwchem-5.0
    nwchem branch = 5.0
    input         = water_basis.nw
    prefix        = water_basis.
    data base     = ./water_basis.db
    status        = startup
    nproc         =    1
    time left     =     -1s



           Memory information
           ------------------

    heap      =   13107201 doubles =    100.0 Mbytes
    stack     =   13107201 doubles =    100.0 Mbytes
    global    =   26214400 doubles =    200.0 Mbytes (distinct from heap & stack)
    total     =   52428802 doubles =    400.0 Mbytes
    verify    = yes
    hardfail  = no 


           Directory information
           ---------------------
 
  0 permanent = .
  0 scratch   = .
 
 
 
 
                                NWChem Input Module
                                -------------------
 
 
                      water cc-pvdz SCF geometry optimization
                      ---------------------------------------

 Scaling coordinates for geometry "geometry" by  1.889725989
 (inverse scale =  0.529177249)

 C2V symmetry detected

          ------
          auto-z
          ------
 
 
                             Geometry "geometry" -> ""
                             -------------------------
 
 Output coordinates in angstroms (scale by  1.889725989 to convert to a.u.)
 
  No.       Tag          Charge          X              Y              Z
 ---- ---------------- ---------- -------------- -------------- --------------
    1 O                    8.0000     0.00000000     0.00000000    -0.11460000
    2 H                    1.0000    -0.75400000     0.00000000     0.45840000
    3 H                    1.0000     0.75400000     0.00000000     0.45840000
 
      Atomic Mass 
      ----------- 
 
      O                 15.994910
      H                  1.007825
 

 Effective nuclear repulsion energy (a.u.)       9.2914265473

            Nuclear Dipole moment (a.u.) 
            ----------------------------
        X                 Y               Z
 ---------------- ---------------- ----------------
     0.0000000000     0.0000000000     0.0000000000
 
      Symmetry information
      --------------------
 
 Group name             C2v       
 Group number             16
 Group order               4
 No. of unique centers     2
 
      Symmetry unique atoms
 
     1    2
 


                                Z-matrix (autoz)
                                -------- 

 Units are Angstrom for bonds and degrees for angles
 
      Type          Name      I     J     K     L     M      Value
      ----------- --------  ----- ----- ----- ----- ----- ----------
    1 Stretch                  1     2                       0.94702
    2 Stretch                  1     3                       0.94702
    3 Bend                     2     1     3               105.53419
 
 
            XYZ format geometry
            -------------------
     3
 geometry
 O                     0.00000000     0.00000000    -0.11460000
 H                    -0.75400000     0.00000000     0.45840000
 H                     0.75400000     0.00000000     0.45840000
 
 ==============================================================================
                                internuclear distances
 ------------------------------------------------------------------------------
       center one      |      center two      | atomic units |  angstroms
 ------------------------------------------------------------------------------
    2 H                |   1 O                |     1.78961  |     0.94702
    3 H                |   1 O                |     1.78961  |     0.94702
 ------------------------------------------------------------------------------
                         number of included internuclear distances:          2
 ==============================================================================



 ==============================================================================
                                 internuclear angles
 ------------------------------------------------------------------------------
        center 1       |       center 2       |       center 3       |  degrees
 ------------------------------------------------------------------------------
    2 H                |   1 O                |   3 H                |   105.53
 ------------------------------------------------------------------------------
                            number of included internuclear angles:          1
 ==============================================================================



  library name resolved from: .nwchemrc
  library file name is: <
 /home/francesco/nwchem50/usr.local.lib.nwchem/libraries/>
  
                      Basis "ao basis" -> "" (cartesian)
                      -----
  O (Oxygen)
  ----------
            Exponent  Coefficients 
       -------------- ---------------------------------------------------------
  1 S  1.17200000E+04  0.000710
  1 S  1.75900000E+03  0.005470
  1 S  4.00800000E+02  0.027837
  1 S  1.13700000E+02  0.104800
  1 S  3.70300000E+01  0.283062
  1 S  1.32700000E+01  0.448719
  1 S  5.02500000E+00  0.270952
  1 S  1.01300000E+00  0.015458
 
  2 S  1.17200000E+04 -0.000160
  2 S  1.75900000E+03 -0.001263
  2 S  4.00800000E+02 -0.006267
  2 S  1.13700000E+02 -0.025716
  2 S  3.70300000E+01 -0.070924
  2 S  1.32700000E+01 -0.165411
  2 S  5.02500000E+00 -0.116955
  2 S  1.01300000E+00  0.557368
 
  3 S  3.02300000E-01  1.000000
 
  4 P  1.77000000E+01  0.043018
  4 P  3.85400000E+00  0.228913
  4 P  1.04600000E+00  0.508728
 
  5 P  2.75300000E-01  1.000000
 
  6 D  1.18500000E+00  1.000000
 
  H (Hydrogen)
  ------------
            Exponent  Coefficients 
       -------------- ---------------------------------------------------------
  1 S  1.30100000E+01  0.019685
  1 S  1.96200000E+00  0.137977
  1 S  4.44600000E-01  0.478148
 
  2 S  1.22000000E-01  1.000000
 
  3 P  7.27000000E-01  1.000000
 


 Summary of "ao basis" -> "" (cartesian)
 ------------------------------------------------------------------------------
       Tag                 Description            Shells   Functions and Types
 ---------------- ------------------------------  ------  ---------------------
 O                          cc-pvdz                  6       15   3s2p1d
 H                          cc-pvdz                  3        5   2s1p


 
 
                           NWChem Geometry Optimization
                           ----------------------------
 
 
 
 
                      water cc-pvdz SCF geometry optimization
 
 
 maximum gradient threshold         (gmax) =   0.000450
 rms gradient threshold             (grms) =   0.000300
 maximum cartesian step threshold   (xmax) =   0.001800
 rms cartesian step threshold       (xrms) =   0.001200
 fixed trust radius                (trust) =   0.300000
 maximum step size to saddle      (sadstp) =   0.100000
 energy precision                  (eprec) =   1.0D-07
 maximum number of steps          (nptopt) =   20
 initial hessian option           (inhess) =    0
 line search option               (linopt) =    1
 hessian update option            (modupd) =    1
 saddle point option              (modsad) =    0
 initial eigen-mode to follow     (moddir) =    0
 initial variable to follow       (vardir) =    0
 follow first negative mode     (firstneg) =    T
 apply conjugacy                    (opcg) =    F
 source of zmatrix                         =   autoz   


          -------------------
          Energy Minimization
          -------------------

 
 Names of Z-matrix variables 
    1              2              3         
 
 Variables with the same non-blank name are constrained to be equal
 
 
 Using diagonal initial Hessian 
 Scaling for Hessian diagonals: bonds = 1.00  angles = 0.25  torsions = 0.10

          --------
          Step   0
          --------
 
 
                         Geometry "geometry" -> "geometry"
                         ---------------------------------
 
 Output coordinates in angstroms (scale by  1.889725989 to convert to a.u.)
 
  No.       Tag          Charge          X              Y              Z
 ---- ---------------- ---------- -------------- -------------- --------------
    1 O                    8.0000     0.00000000     0.00000000    -0.11460000
    2 H                    1.0000    -0.75400000     0.00000000     0.45840000
    3 H                    1.0000     0.75400000     0.00000000     0.45840000
 
      Atomic Mass 
      ----------- 
 
      O                 15.994910
      H                  1.007825
 

 Effective nuclear repulsion energy (a.u.)       9.2914265473

            Nuclear Dipole moment (a.u.) 
            ----------------------------
        X                 Y               Z
 ---------------- ---------------- ----------------
     0.0000000000     0.0000000000     0.0000000000
 
      Symmetry information
      --------------------
 
 Group name             C2v       
 Group number             16
 Group order               4
 No. of unique centers     2
 
      Symmetry unique atoms
 
     1    2
 
                                 NWChem SCF Module
                                 -----------------
 
 
                      water cc-pvdz SCF geometry optimization
 
 

  ao basis        = "ao basis"
  functions       =    25
  atoms           =     3
  closed shells   =     5
  open shells     =     0
  charge          =   0.00
  wavefunction    = RHF 
  input vectors   = atomic
  output vectors  = ./water_basis.movecs
  use symmetry    = T
  symmetry adapt  = T


 Summary of "ao basis" -> "ao basis" (cartesian)
 ------------------------------------------------------------------------------
       Tag                 Description            Shells   Functions and Types
 ---------------- ------------------------------  ------  ---------------------
 O                          cc-pvdz                  6       15   3s2p1d
 H                          cc-pvdz                  3        5   2s1p


      Symmetry analysis of basis
      --------------------------
 
        a1         12
        a2          2
        b1          7
        b2          4
 

 Forming initial guess at       0.2s

 
      Superposition of Atomic Density Guess
      -------------------------------------
 
 Sum of atomic energies:         -75.76222910
 
      Non-variational initial energy
      ------------------------------

 Total energy =     -75.945202
 1-e energy   =    -121.927478
 2-e energy   =      36.690849
 HOMO         =      -0.472752
 LUMO         =       0.093002
 
 
      Symmetry analysis of molecular orbitals - initial
      -------------------------------------------------
 
  Numbering of irreducible representations: 
 
     1 a1          2 a2          3 b1          4 b2      
 
  Orbital symmetries:
 
     1 a1          2 a1          3 b1          4 a1          5 b2      
     6 a1          7 b1          8 b1          9 a1         10 a1      
    11 b2         12 b1         13 a1         14 a2         15 b2      
 

 Starting SCF solution at       0.4s



 ----------------------------------------------
         Quadratically convergent ROHF

 Convergence threshold     :          1.000E-04
 Maximum no. of iterations :           20
 Final Fock-matrix accuracy:          1.000E-07
 ----------------------------------------------


 #quartets = 1.953D+03 #integrals = 1.805D+04 #direct =  0.0% #cached =100.0%


 Integral file          = ./water_basis.aoints.0
 Record size in doubles =  65536        No. of integs per rec  =  43688
 Max. records in memory =      2        Max. records in file   = 173496
 No. of bits per label  =      8        No. of bits per value  =     64


              iter       energy          gnorm     gmax       time
             ----- ------------------- --------- --------- --------
                 1      -75.9929048361  8.38D-01  3.70D-01      0.2
                 2      -76.0251220511  1.78D-01  7.81D-02      0.2
                 3      -76.0273419902  1.43D-02  6.24D-03      0.2
                 4      -76.0273571970  3.27D-05  1.77D-05      0.3


       Final RHF  results 
       ------------------ 

         Total SCF energy =    -76.027357197047
      One-electron energy =   -123.320541230525
      Two-electron energy =     38.001757486154
 Nuclear repulsion energy =      9.291426547323

        Time for solution =      0.1s


 
       Symmetry analysis of molecular orbitals - final
       -----------------------------------------------
 
  Numbering of irreducible representations: 
 
     1 a1          2 a2          3 b1          4 b2      
 
  Orbital symmetries:
 
     1 a1          2 a1          3 b1          4 a1          5 b2      
     6 a1          7 b1          8 b1          9 a1         10 a1      
    11 b2         12 b1         13 a1         14 a2         15 b2      
 
             Final eigenvalues
             -----------------

              1      
    1  -20.5495
    2   -1.3414
    3   -0.7071
    4   -0.5667
    5   -0.4939
    6    0.1853
    7    0.2574
    8    0.8002
    9    0.8593
   10    1.1576
   11    1.2003
   12    1.2515
   13    1.4302
   14    1.4755
   15    1.6824
 
                       ROHF Final Molecular Orbital Analysis
                       -------------------------------------
 
 Vector    2  Occ=2.000000D+00  E=-1.341395D+00  Symmetry=a1
              MO Center=  4.8D-16, -8.5D-18,  5.7D-02, r^2= 5.0D-01
   Bfn.  Coefficient  Atom+Function         Bfn.  Coefficient  Atom+Function  
  ----- ------------  ---------------      ----- ------------  ---------------
     2      0.439957  1 O  s                  3      0.362834  1 O  s          
    21      0.197372  3 H  s                 16      0.197372  2 H  s          
 
 Vector    3  Occ=2.000000D+00  E=-7.070939D-01  Symmetry=b1
              MO Center= -4.4D-16, -1.1D-33,  1.1D-01, r^2= 7.6D-01
   Bfn.  Coefficient  Atom+Function         Bfn.  Coefficient  Atom+Function  
  ----- ------------  ---------------      ----- ------------  ---------------
     4      0.490976  1 O  px                16     -0.330688  2 H  s          
    21      0.330688  3 H  s                  7      0.216898  1 O  px         
 
 Vector    4  Occ=2.000000D+00  E=-5.666655D-01  Symmetry=a1
              MO Center=  3.4D-17, -5.2D-19, -1.7D-01, r^2= 6.7D-01
   Bfn.  Coefficient  Atom+Function         Bfn.  Coefficient  Atom+Function  
  ----- ------------  ---------------      ----- ------------  ---------------
     6      0.548307  1 O  pz                 9      0.365838  1 O  pz         
     3     -0.364959  1 O  s                 16      0.204629  2 H  s          
    21      0.204629  3 H  s                  2     -0.152950  1 O  s          
 
 Vector    5  Occ=2.000000D+00  E=-4.938948D-01  Symmetry=b2
              MO Center=  2.5D-17, -9.7D-17, -9.1D-02, r^2= 6.0D-01
   Bfn.  Coefficient  Atom+Function         Bfn.  Coefficient  Atom+Function  
  ----- ------------  ---------------      ----- ------------  ---------------
     5      0.630807  1 O  py                 8      0.495264  1 O  py         
 
 Vector    6  Occ=0.000000D+00  E= 1.852941D-01  Symmetry=a1
              MO Center=  3.7D-16,  3.5D-17,  6.2D-01, r^2= 3.0D+00
   Bfn.  Coefficient  Atom+Function         Bfn.  Coefficient  Atom+Function  
  ----- ------------  ---------------      ----- ------------  ---------------
     3      1.079629  1 O  s                 17     -0.843133  2 H  s          
    22     -0.843133  3 H  s                  9      0.333985  1 O  pz         
     6      0.184130  1 O  pz         
 
 Vector    7  Occ=0.000000D+00  E= 2.574489D-01  Symmetry=b1
              MO Center= -2.9D-16,  2.0D-17,  6.1D-01, r^2= 3.6D+00
   Bfn.  Coefficient  Atom+Function         Bfn.  Coefficient  Atom+Function  
  ----- ------------  ---------------      ----- ------------  ---------------
    17     -1.458864  2 H  s                 22      1.458864  3 H  s          
     7     -0.672418  1 O  px                 4     -0.279705  1 O  px         
 
 Vector    8  Occ=0.000000D+00  E= 8.002211D-01  Symmetry=b1
              MO Center=  2.5D-16,  7.9D-33,  2.4D-01, r^2= 1.6D+00
   Bfn.  Coefficient  Atom+Function         Bfn.  Coefficient  Atom+Function  
  ----- ------------  ---------------      ----- ------------  ---------------
    16      0.945559  2 H  s                 21     -0.945559  3 H  s          
    22      0.665775  3 H  s                 17     -0.665775  2 H  s          
     7      0.480319  1 O  px                 4      0.267499  1 O  px         
    12     -0.195158  1 O  dxz               20      0.158680  2 H  pz         
    25     -0.158680  3 H  pz         
 
 Vector    9  Occ=0.000000D+00  E= 8.592832D-01  Symmetry=a1
              MO Center= -5.5D-17, -1.1D-18,  4.6D-01, r^2= 1.6D+00
   Bfn.  Coefficient  Atom+Function         Bfn.  Coefficient  Atom+Function  
  ----- ------------  ---------------      ----- ------------  ---------------
    16      0.784487  2 H  s                 21      0.784487  3 H  s          
    17     -0.538384  2 H  s                 22     -0.538384  3 H  s          
     6     -0.321523  1 O  pz                18     -0.303192  2 H  px         
    23      0.303192  3 H  px                 3      0.297129  1 O  s          
     2     -0.249199  1 O  s          
 
 Vector   10  Occ=0.000000D+00  E= 1.157607D+00  Symmetry=a1
              MO Center= -1.1D-16,  1.5D-17, -1.9D-01, r^2= 1.2D+00
   Bfn.  Coefficient  Atom+Function         Bfn.  Coefficient  Atom+Function  
  ----- ------------  ---------------      ----- ------------  ---------------
     9      1.276740  1 O  pz                 6     -0.751924  1 O  pz         
     3      0.601475  1 O  s                 21     -0.543769  3 H  s          
    16     -0.543769  2 H  s                 25      0.235750  3 H  pz         
    20      0.235750  2 H  pz         
 
 Vector   11  Occ=0.000000D+00  E= 1.200301D+00  Symmetry=b2
              MO Center= -3.9D-35,  3.5D-17, -1.2D-01, r^2= 1.1D+00
   Bfn.  Coefficient  Atom+Function         Bfn.  Coefficient  Atom+Function  
  ----- ------------  ---------------      ----- ------------  ---------------
     8      1.034127  1 O  py                 5     -0.967489  1 O  py         
 
 Vector   12  Occ=0.000000D+00  E= 1.251451D+00  Symmetry=b1
              MO Center= -3.1D-17,  3.3D-19, -1.2D-01, r^2= 1.7D+00
   Bfn.  Coefficient  Atom+Function         Bfn.  Coefficient  Atom+Function  
  ----- ------------  ---------------      ----- ------------  ---------------
     7      1.779987  1 O  px                17      0.839140  2 H  s          
    22     -0.839140  3 H  s                  4     -0.726455  1 O  px         
    21     -0.389995  3 H  s                 16      0.389995  2 H  s          
    18      0.305588  2 H  px                23      0.305588  3 H  px         
    25      0.185828  3 H  pz                20     -0.185828  2 H  pz         
 
 Vector   13  Occ=0.000000D+00  E= 1.430195D+00  Symmetry=a1
              MO Center= -8.3D-17,  1.4D-17,  7.7D-02, r^2= 1.4D+00
   Bfn.  Coefficient  Atom+Function         Bfn.  Coefficient  Atom+Function  
  ----- ------------  ---------------      ----- ------------  ---------------
     3      1.143893  1 O  s                  2     -0.658516  1 O  s          
    20      0.528728  2 H  pz                25      0.528728  3 H  pz         
     9     -0.526422  1 O  pz                 1     -0.297198  1 O  s          
    22     -0.288608  3 H  s                 17     -0.288608  2 H  s          
    18      0.285097  2 H  px                23     -0.285097  3 H  px         
 
 Vector   14  Occ=0.000000D+00  E= 1.475491D+00  Symmetry=a2
              MO Center= -1.2D-15, -2.2D-17,  4.2D-01, r^2= 1.0D+00
   Bfn.  Coefficient  Atom+Function         Bfn.  Coefficient  Atom+Function  
  ----- ------------  ---------------      ----- ------------  ---------------
    19      0.685796  2 H  py                24     -0.685796  3 H  py         
    11     -0.223958  1 O  dxy        
 
 Vector   15  Occ=0.000000D+00  E= 1.682374D+00  Symmetry=b2
              MO Center=  9.4D-16, -3.1D-20,  2.8D-01, r^2= 1.2D+00
   Bfn.  Coefficient  Atom+Function         Bfn.  Coefficient  Atom+Function  
  ----- ------------  ---------------      ----- ------------  ---------------
    24      0.770700  3 H  py                19      0.770700  2 H  py         
     8     -0.627496  1 O  py                14      0.277334  1 O  dyz        
 

 center of mass
 --------------
 x =   0.00000000 y =   0.00000000 z =  -0.09537969

 moments of inertia (a.u.)
 ------------------
           2.098826904048           0.000000000000           0.000000000000
           0.000000000000           6.191014043407           0.000000000000
           0.000000000000           0.000000000000           4.092187139359
 
  Mulliken analysis of the total density
  --------------------------------------

    Atom       Charge   Shell Charges
 -----------   ------   -------------------------------------------------------
    1 O    8     8.29   2.00  0.83  0.81  2.83  1.80  0.02
    2 H    1     0.85   0.70  0.07  0.09
    3 H    1     0.85   0.70  0.07  0.09
 
       Multipole analysis of the density wrt the origin
       ------------------------------------------------
 
     L   x y z        total         open         nuclear
     -   - - -        -----         ----         -------
     0   0 0 0      0.000000      0.000000     10.000000
 
     1   1 0 0      0.000000      0.000000      0.000000
     1   0 1 0      0.000000      0.000000      0.000000
     1   0 0 1      0.799191      0.000000      0.000000
 
     2   2 0 0     -3.055169      0.000000      4.060414
     2   1 1 0      0.000000      0.000000      0.000000
     2   1 0 1      0.000000      0.000000      0.000000
     2   0 2 0     -5.212574      0.000000      0.000000
     2   0 1 1      0.000000      0.000000      0.000000
     2   0 0 2     -4.398915      0.000000      1.875974
 

 Parallel integral file used       1 records with       0 large values

                              NWChem Gradients Module
                              -----------------------
 
 
                      water cc-pvdz SCF geometry optimization
 

  wavefunction    =   RHF     

  Using symmetry


                         RHF ENERGY GRADIENTS

    atom               coordinates                        gradient
                 x          y          z           x          y          z
   1 O       0.000000   0.000000  -0.216563    0.000000   0.000000   0.001496
   2 H      -1.424853   0.000000   0.866250   -0.002100   0.000000  -0.000748
   3 H       1.424853   0.000000   0.866250    0.002100   0.000000  -0.000748
 
                 ----------------------------------------
                 |  Time  |  1-e(secs)   |  2-e(secs)   |
                 ----------------------------------------
                 |  CPU   |       0.00   |       0.23   |
                 ----------------------------------------
                 |  WALL  |       0.00   |       0.25   |
                 ----------------------------------------

@ Step       Energy      Delta E   Gmax     Grms     Xrms     Xmax   Walltime
@ ---- ---------------- -------- -------- -------- -------- -------- --------
@    0     -76.02735720  0.0D+00  0.00177  0.00143  0.00000  0.00000      0.9
                                                       ok       ok  



                                Z-matrix (autoz)
                                -------- 

 Units are Angstrom for bonds and degrees for angles
 
      Type          Name      I     J     K     L     M      Value     Gradient
      ----------- --------  ----- ----- ----- ----- ----- ---------- ----------
    1 Stretch                  1     2                       0.94702    0.00122
    2 Stretch                  1     3                       0.94702    0.00122
    3 Bend                     2     1     3               105.53419    0.00177
 
                                 NWChem SCF Module
                                 -----------------
 
 
                      water cc-pvdz SCF geometry optimization
 
 

  ao basis        = "ao basis"
  functions       =    25
  atoms           =     3
  closed shells   =     5
  open shells     =     0
  charge          =   0.00
  wavefunction    = RHF 
  input vectors   = ./water_basis.movecs
  output vectors  = ./water_basis.movecs
  use symmetry    = T
  symmetry adapt  = T


 Summary of "ao basis" -> "ao basis" (cartesian)
 ------------------------------------------------------------------------------
       Tag                 Description            Shells   Functions and Types
 ---------------- ------------------------------  ------  ---------------------
 O                          cc-pvdz                  6       15   3s2p1d
 H                          cc-pvdz                  3        5   2s1p


      Symmetry analysis of basis
      --------------------------
 
        a1         12
        a2          2
        b1          7
        b2          4
 

 Forming initial guess at       0.9s


 Loading old vectors from job with title :

water cc-pvdz SCF geometry optimization

 
      Symmetry analysis of molecular orbitals - initial
      -------------------------------------------------
 
  Numbering of irreducible representations: 
 
     1 a1          2 a2          3 b1          4 b2      
 
  Orbital symmetries:
 
     1 a1          2 a1          3 b1          4 a1          5 b2      
     6 a1          7 b1          8 b1          9 a1         10 a1      
    11 b2         12 b1         13 a1         14 a2         15 b2      
 

 Starting SCF solution at       0.9s



 ----------------------------------------------
         Quadratically convergent ROHF

 Convergence threshold     :          1.000E-04
 Maximum no. of iterations :           20
 Final Fock-matrix accuracy:          1.000E-07
 ----------------------------------------------


 #quartets = 1.953D+03 #integrals = 1.805D+04 #direct =  0.0% #cached =100.0%


 Integral file          = ./water_basis.aoints.0
 Record size in doubles =  65536        No. of integs per rec  =  43688
 Max. records in memory =      2        Max. records in file   = 173496
 No. of bits per label  =      8        No. of bits per value  =     64


              iter       energy          gnorm     gmax       time
             ----- ------------------- --------- --------- --------
                 1      -76.0273634084  1.83D-02  8.59D-03      0.6
                 2      -76.0273859561  1.02D-04  3.25D-05      0.7
                 3      -76.0273859569  8.24D-06  3.88D-06      0.7


       Final RHF  results 
       ------------------ 

         Total SCF energy =    -76.027385956942
      One-electron energy =   -123.352049780014
      Two-electron energy =     38.013480606755
 Nuclear repulsion energy =      9.311183216317

        Time for solution =      0.1s


 
       Symmetry analysis of molecular orbitals - final
       -----------------------------------------------
 
  Numbering of irreducible representations: 
 
     1 a1          2 a2          3 b1          4 b2      
 
  Orbital symmetries:
 
     1 a1          2 a1          3 b1          4 a1          5 b2      
     6 a1          7 b1          8 b1          9 a1         10 a1      
    11 b2         12 b1         13 a1         14 a2         15 b2      
 
             Final eigenvalues
             -----------------

              1      
    1  -20.5497
    2   -1.3432
    3   -0.7059
    4   -0.5692
    5   -0.4944
    6    0.1854
    7    0.2578
    8    0.7976
    9    0.8661
   10    1.1580
   11    1.2000
   12    1.2525
   13    1.4220
   14    1.4796
   15    1.6766
 
                       ROHF Final Molecular Orbital Analysis
                       -------------------------------------
 
 Vector    2  Occ=2.000000D+00  E=-1.343201D+00  Symmetry=a1
              MO Center= -8.2D-18,  3.5D-35,  5.5D-02, r^2= 5.0D-01
   Bfn.  Coefficient  Atom+Function         Bfn.  Coefficient  Atom+Function  
  ----- ------------  ---------------      ----- ------------  ---------------
     2      0.439640  1 O  s                  3      0.360599  1 O  s          
    16      0.198675  2 H  s                 21      0.198675  3 H  s          
 
 Vector    3  Occ=2.000000D+00  E=-7.059425D-01  Symmetry=b1
              MO Center= -4.2D-17, -1.6D-33,  1.0D-01, r^2= 7.6D-01
   Bfn.  Coefficient  Atom+Function         Bfn.  Coefficient  Atom+Function  
  ----- ------------  ---------------      ----- ------------  ---------------
     4      0.491821  1 O  px                16     -0.330379  2 H  s          
    21      0.330379  3 H  s                  7      0.218317  1 O  px         
 
 Vector    4  Occ=2.000000D+00  E=-5.692422D-01  Symmetry=a1
              MO Center= -9.1D-18, -3.5D-38, -1.7D-01, r^2= 6.7D-01
   Bfn.  Coefficient  Atom+Function         Bfn.  Coefficient  Atom+Function  
  ----- ------------  ---------------      ----- ------------  ---------------
     6      0.547126  1 O  pz                 3     -0.368875  1 O  s          
     9      0.362639  1 O  pz                16      0.206425  2 H  s          
    21      0.206425  3 H  s                  2     -0.154493  1 O  s          
 
 Vector    5  Occ=2.000000D+00  E=-4.944201D-01  Symmetry=b2
              MO Center=  2.5D-17, -1.1D-16, -9.4D-02, r^2= 6.0D-01
   Bfn.  Coefficient  Atom+Function         Bfn.  Coefficient  Atom+Function  
  ----- ------------  ---------------      ----- ------------  ---------------
     5      0.630889  1 O  py                 8      0.494948  1 O  py         
 
 Vector    6  Occ=0.000000D+00  E= 1.853599D-01  Symmetry=a1
              MO Center= -4.5D-17,  6.8D-17,  6.2D-01, r^2= 3.0D+00
   Bfn.  Coefficient  Atom+Function         Bfn.  Coefficient  Atom+Function  
  ----- ------------  ---------------      ----- ------------  ---------------
     3      1.078536  1 O  s                 17     -0.842866  2 H  s          
    22     -0.842866  3 H  s                  9      0.335724  1 O  pz         
     6      0.184680  1 O  pz         
 
 Vector    7  Occ=0.000000D+00  E= 2.578459D-01  Symmetry=b1
              MO Center=  7.6D-16, -1.0D-31,  6.1D-01, r^2= 3.6D+00
   Bfn.  Coefficient  Atom+Function         Bfn.  Coefficient  Atom+Function  
  ----- ------------  ---------------      ----- ------------  ---------------
    22     -1.467822  3 H  s                 17      1.467822  2 H  s          
     7      0.671162  1 O  px                 4      0.279718  1 O  px         
 
 Vector    8  Occ=0.000000D+00  E= 7.976441D-01  Symmetry=b1
              MO Center=  1.3D-16, -1.5D-32,  2.3D-01, r^2= 1.6D+00
   Bfn.  Coefficient  Atom+Function         Bfn.  Coefficient  Atom+Function  
  ----- ------------  ---------------      ----- ------------  ---------------
    16      0.946248  2 H  s                 21     -0.946248  3 H  s          
    17     -0.667197  2 H  s                 22      0.667197  3 H  s          
     7      0.484591  1 O  px                 4      0.263510  1 O  px         
    12     -0.195286  1 O  dxz               20      0.156299  2 H  pz         
    25     -0.156299  3 H  pz         
 
 Vector    9  Occ=0.000000D+00  E= 8.660816D-01  Symmetry=a1
              MO Center= -1.2D-16, -2.8D-18,  4.6D-01, r^2= 1.6D+00
   Bfn.  Coefficient  Atom+Function         Bfn.  Coefficient  Atom+Function  
  ----- ------------  ---------------      ----- ------------  ---------------
    16      0.774676  2 H  s                 21      0.774676  3 H  s          
    17     -0.539127  2 H  s                 22     -0.539127  3 H  s          
     6     -0.331680  1 O  pz                 3      0.316594  1 O  s          
    18     -0.306930  2 H  px                23      0.306930  3 H  px         
     2     -0.252316  1 O  s          
 
 Vector   10  Occ=0.000000D+00  E= 1.158041D+00  Symmetry=a1
              MO Center= -4.2D-17,  1.6D-17, -2.0D-01, r^2= 1.2D+00
   Bfn.  Coefficient  Atom+Function         Bfn.  Coefficient  Atom+Function  
  ----- ------------  ---------------      ----- ------------  ---------------
     9      1.284077  1 O  pz                 6     -0.744274  1 O  pz         
     3      0.593733  1 O  s                 16     -0.559513  2 H  s          
    21     -0.559513  3 H  s                 20      0.236297  2 H  pz         
    25      0.236297  3 H  pz                 2      0.150182  1 O  s          
 
 Vector   11  Occ=0.000000D+00  E= 1.200007D+00  Symmetry=b2
              MO Center= -6.5D-19, -2.3D-20, -1.2D-01, r^2= 1.1D+00
   Bfn.  Coefficient  Atom+Function         Bfn.  Coefficient  Atom+Function  
  ----- ------------  ---------------      ----- ------------  ---------------
     8      1.035484  1 O  py                 5     -0.967305  1 O  py         
 
 Vector   12  Occ=0.000000D+00  E= 1.252469D+00  Symmetry=b1
              MO Center=  4.5D-16,  2.5D-19, -1.2D-01, r^2= 1.7D+00
   Bfn.  Coefficient  Atom+Function         Bfn.  Coefficient  Atom+Function  
  ----- ------------  ---------------      ----- ------------  ---------------
     7      1.776975  1 O  px                22     -0.845718  3 H  s          
    17      0.845718  2 H  s                  4     -0.729369  1 O  px         
    16      0.385769  2 H  s                 21     -0.385769  3 H  s          
    23      0.299609  3 H  px                18      0.299609  2 H  px         
    20     -0.193496  2 H  pz                25      0.193496  3 H  pz         
 
 Vector   13  Occ=0.000000D+00  E= 1.422017D+00  Symmetry=a1
              MO Center= -5.6D-17,  1.4D-17,  8.2D-02, r^2= 1.4D+00
   Bfn.  Coefficient  Atom+Function         Bfn.  Coefficient  Atom+Function  
  ----- ------------  ---------------      ----- ------------  ---------------
     3      1.062900  1 O  s                  2     -0.627692  1 O  s          
     9     -0.547676  1 O  pz                20      0.526694  2 H  pz         
    25      0.526694  3 H  pz                23     -0.299970  3 H  px         
    18      0.299970  2 H  px                 1     -0.281400  1 O  s          
    17     -0.278063  2 H  s                 22     -0.278063  3 H  s          
 
 Vector   14  Occ=0.000000D+00  E= 1.479566D+00  Symmetry=a2
              MO Center= -1.3D-15, -1.2D-17,  4.2D-01, r^2= 1.0D+00
   Bfn.  Coefficient  Atom+Function         Bfn.  Coefficient  Atom+Function  
  ----- ------------  ---------------      ----- ------------  ---------------
    19      0.686856  2 H  py                24     -0.686856  3 H  py         
    11     -0.224247  1 O  dxy        
 
 Vector   15  Occ=0.000000D+00  E= 1.676571D+00  Symmetry=b2
              MO Center=  1.0D-15,  3.3D-20,  2.9D-01, r^2= 1.2D+00
   Bfn.  Coefficient  Atom+Function         Bfn.  Coefficient  Atom+Function  
  ----- ------------  ---------------      ----- ------------  ---------------
    24      0.769495  3 H  py                19      0.769495  2 H  py         
     8     -0.625526  1 O  py                14      0.276696  1 O  dyz        
 

 center of mass
 --------------
 x =   0.00000000 y =   0.00000000 z =  -0.10175344

 moments of inertia (a.u.)
 ------------------
           2.143603108545           0.000000000000           0.000000000000
           0.000000000000           6.161566071525           0.000000000000
           0.000000000000           0.000000000000           4.017962962980
 
  Mulliken analysis of the total density
  --------------------------------------

    Atom       Charge   Shell Charges
 -----------   ------   -------------------------------------------------------
    1 O    8     8.29   2.00  0.83  0.81  2.83  1.80  0.02
    2 H    1     0.86   0.70  0.07  0.09
    3 H    1     0.86   0.70  0.07  0.09
 
       Multipole analysis of the density wrt the origin
       ------------------------------------------------
 
     L   x y z        total         open         nuclear
     -   - - -        -----         ----         -------
     0   0 0 0      0.000000      0.000000     10.000000
 
     1   1 0 0      0.000000      0.000000      0.000000
     1   0 1 0      0.000000      0.000000      0.000000
     1   0 0 1      0.805025      0.000000     -0.053617
 
     2   2 0 0     -3.092300      0.000000      3.986767
     2   1 1 0      0.000000      0.000000      0.000000
     2   1 0 1      0.000000      0.000000      0.000000
     2   0 2 0     -5.208897      0.000000      0.000000
     2   0 1 1      0.000000      0.000000      0.000000
     2   0 0 2     -4.385868      0.000000      1.916284
 

 Parallel integral file used       1 records with       0 large values

 Line search: 
     step= 1.00 grad=-7.2D-05 hess= 4.3D-05 energy=    -76.027386 mode=downhill
 new step= 0.84                   predicted energy=    -76.027387

          --------
          Step   1
          --------
 
 
                         Geometry "geometry" -> "geometry"
                         ---------------------------------
 
 Output coordinates in angstroms (scale by  1.889725989 to convert to a.u.)
 
  No.       Tag          Charge          X              Y              Z
 ---- ---------------- ---------- -------------- -------------- --------------
    1 O                    8.0000     0.00000000     0.00000000    -0.11798975
    2 H                    1.0000    -0.74826456     0.00000000     0.46009488
    3 H                    1.0000     0.74826456     0.00000000     0.46009488
 
      Atomic Mass 
      ----------- 
 
      O                 15.994910
      H                  1.007825
 

 Effective nuclear repulsion energy (a.u.)       9.3079216662

            Nuclear Dipole moment (a.u.) 
            ----------------------------
        X                 Y               Z
 ---------------- ---------------- ----------------
     0.0000000000     0.0000000000    -0.0448399441
 
      Symmetry information
      --------------------
 
 Group name             C2v       
 Group number             16
 Group order               4
 No. of unique centers     2
 
      Symmetry unique atoms
 
     1    2
 
                                 NWChem SCF Module
                                 -----------------
 
 
                      water cc-pvdz SCF geometry optimization
 
 

  ao basis        = "ao basis"
  functions       =    25
  atoms           =     3
  closed shells   =     5
  open shells     =     0
  charge          =   0.00
  wavefunction    = RHF 
  input vectors   = ./water_basis.movecs
  output vectors  = ./water_basis.movecs
  use symmetry    = T
  symmetry adapt  = T


 Summary of "ao basis" -> "ao basis" (cartesian)
 ------------------------------------------------------------------------------
       Tag                 Description            Shells   Functions and Types
 ---------------- ------------------------------  ------  ---------------------
 O                          cc-pvdz                  6       15   3s2p1d
 H                          cc-pvdz                  3        5   2s1p


      Symmetry analysis of basis
      --------------------------
 
        a1         12
        a2          2
        b1          7
        b2          4
 

 Forming initial guess at       1.2s


 Loading old vectors from job with title :

water cc-pvdz SCF geometry optimization

 
      Symmetry analysis of molecular orbitals - initial
      -------------------------------------------------
 
  Numbering of irreducible representations: 
 
     1 a1          2 a2          3 b1          4 b2      
 
  Orbital symmetries:
 
     1 a1          2 a1          3 b1          4 a1          5 b2      
     6 a1          7 b1          8 b1          9 a1         10 a1      
    11 b2         12 b1         13 a1         14 a2         15 b2      
 

 Starting SCF solution at       1.2s



 ----------------------------------------------
         Quadratically convergent ROHF

 Convergence threshold     :          1.000E-04
 Maximum no. of iterations :           20
 Final Fock-matrix accuracy:          1.000E-07
 ----------------------------------------------


 #quartets = 1.953D+03 #integrals = 1.805D+04 #direct =  0.0% #cached =100.0%


 Integral file          = ./water_basis.aoints.0
 Record size in doubles =  65536        No. of integs per rec  =  43688
 Max. records in memory =      2        Max. records in file   = 173496
 No. of bits per label  =      8        No. of bits per value  =     64


              iter       energy          gnorm     gmax       time
             ----- ------------------- --------- --------- --------
                 1      -76.0273865358  3.02D-03  1.43D-03      0.8
                 2      -76.0273871514  3.77D-06  1.73D-06      0.8


       Final RHF  results 
       ------------------ 

         Total SCF energy =    -76.027387151383
      One-electron energy =   -123.346842415441
      Two-electron energy =     38.011533597822
 Nuclear repulsion energy =      9.307921666237

        Time for solution =      0.1s


 
       Symmetry analysis of molecular orbitals - final
       -----------------------------------------------
 
  Numbering of irreducible representations: 
 
     1 a1          2 a2          3 b1          4 b2      
 
  Orbital symmetries:
 
     1 a1          2 a1          3 b1          4 a1          5 b2      
     6 a1          7 b1          8 b1          9 a1         10 a1      
    11 b2         12 b1         13 a1         14 a2         15 b2      
 
             Final eigenvalues
             -----------------

              1      
    1  -20.5497
    2   -1.3429
    3   -0.7061
    4   -0.5688
    5   -0.4943
    6    0.1854
    7    0.2578
    8    0.7981
    9    0.8650
   10    1.1580
   11    1.2001
   12    1.2523
   13    1.4234
   14    1.4789
   15    1.6775
 
                       ROHF Final Molecular Orbital Analysis
                       -------------------------------------
 
 Vector    2  Occ=2.000000D+00  E=-1.342903D+00  Symmetry=a1
              MO Center=  8.2D-18, -4.5D-25,  5.5D-02, r^2= 5.0D-01
   Bfn.  Coefficient  Atom+Function         Bfn.  Coefficient  Atom+Function  
  ----- ------------  ---------------      ----- ------------  ---------------
     2      0.439693  1 O  s                  3      0.360965  1 O  s          
    16      0.198461  2 H  s                 21      0.198461  3 H  s          
 
 Vector    3  Occ=2.000000D+00  E=-7.061356D-01  Symmetry=b1
              MO Center=  5.2D-18,  4.0D-21,  1.0D-01, r^2= 7.6D-01
   Bfn.  Coefficient  Atom+Function         Bfn.  Coefficient  Atom+Function  
  ----- ------------  ---------------      ----- ------------  ---------------
     4      0.491680  1 O  px                16     -0.330430  2 H  s          
    21      0.330430  3 H  s                  7      0.218082  1 O  px         
 
 Vector    4  Occ=2.000000D+00  E=-5.688179D-01  Symmetry=a1
              MO Center= -1.1D-17,  1.0D-38, -1.7D-01, r^2= 6.7D-01
   Bfn.  Coefficient  Atom+Function         Bfn.  Coefficient  Atom+Function  
  ----- ------------  ---------------      ----- ------------  ---------------
     6      0.547320  1 O  pz                 3     -0.368233  1 O  s          
     9      0.363166  1 O  pz                16      0.206130  2 H  s          
    21      0.206130  3 H  s                  2     -0.154239  1 O  s          
 
 Vector    5  Occ=2.000000D+00  E=-4.943350D-01  Symmetry=b2
              MO Center=  8.7D-19, -5.5D-22, -9.4D-02, r^2= 6.0D-01
   Bfn.  Coefficient  Atom+Function         Bfn.  Coefficient  Atom+Function  
  ----- ------------  ---------------      ----- ------------  ---------------
     5      0.630876  1 O  py                 8      0.494999  1 O  py         
 
 Vector    6  Occ=0.000000D+00  E= 1.853505D-01  Symmetry=a1
              MO Center=  4.4D-17, -2.6D-20,  6.2D-01, r^2= 3.0D+00
   Bfn.  Coefficient  Atom+Function         Bfn.  Coefficient  Atom+Function  
  ----- ------------  ---------------      ----- ------------  ---------------
     3      1.078718  1 O  s                 17     -0.842914  2 H  s          
    22     -0.842914  3 H  s                  9      0.335443  1 O  pz         
     6      0.184591  1 O  pz         
 
 Vector    7  Occ=0.000000D+00  E= 2.577801D-01  Symmetry=b1
              MO Center= -4.7D-16,  4.2D-36,  6.1D-01, r^2= 3.6D+00
   Bfn.  Coefficient  Atom+Function         Bfn.  Coefficient  Atom+Function  
  ----- ------------  ---------------      ----- ------------  ---------------
    17      1.466328  2 H  s                 22     -1.466328  3 H  s          
     7      0.671369  1 O  px                 4      0.279717  1 O  px         
 
 Vector    8  Occ=0.000000D+00  E= 7.980617D-01  Symmetry=b1
              MO Center=  9.0D-17,  3.3D-37,  2.3D-01, r^2= 1.6D+00
   Bfn.  Coefficient  Atom+Function         Bfn.  Coefficient  Atom+Function  
  ----- ------------  ---------------      ----- ------------  ---------------
    16      0.946138  2 H  s                 21     -0.946138  3 H  s          
    17     -0.666950  2 H  s                 22      0.666950  3 H  s          
     7      0.483910  1 O  px                 4      0.264161  1 O  px         
    12     -0.195265  1 O  dxz               20      0.156689  2 H  pz         
    25     -0.156689  3 H  pz         
 
 Vector    9  Occ=0.000000D+00  E= 8.649654D-01  Symmetry=a1
              MO Center=  8.2D-17, -8.3D-20,  4.6D-01, r^2= 1.6D+00
   Bfn.  Coefficient  Atom+Function         Bfn.  Coefficient  Atom+Function  
  ----- ------------  ---------------      ----- ------------  ---------------
    21      0.776324  3 H  s                 16      0.776324  2 H  s          
    22     -0.538995  3 H  s                 17     -0.538995  2 H  s          
     6     -0.329982  1 O  pz                 3      0.313350  1 O  s          
    18     -0.306340  2 H  px                23      0.306340  3 H  px         
     2     -0.251810  1 O  s          
 
 Vector   10  Occ=0.000000D+00  E= 1.157959D+00  Symmetry=a1
              MO Center=  4.9D-17, -3.9D-24, -2.0D-01, r^2= 1.2D+00
   Bfn.  Coefficient  Atom+Function         Bfn.  Coefficient  Atom+Function  
  ----- ------------  ---------------      ----- ------------  ---------------
     9      1.282875  1 O  pz                 6     -0.745557  1 O  pz         
     3      0.595090  1 O  s                 16     -0.556895  2 H  s          
    21     -0.556895  3 H  s                 20      0.236234  2 H  pz         
    25      0.236234  3 H  pz         
 
 Vector   11  Occ=0.000000D+00  E= 1.200055D+00  Symmetry=b2
              MO Center= -5.4D-19, -2.8D-20, -1.2D-01, r^2= 1.1D+00
   Bfn.  Coefficient  Atom+Function         Bfn.  Coefficient  Atom+Function  
  ----- ------------  ---------------      ----- ------------  ---------------
     8      1.035260  1 O  py                 5     -0.967335  1 O  py         
 
 Vector   12  Occ=0.000000D+00  E= 1.252301D+00  Symmetry=b1
              MO Center=  1.7D-17,  2.3D-35, -1.2D-01, r^2= 1.7D+00
   Bfn.  Coefficient  Atom+Function         Bfn.  Coefficient  Atom+Function  
  ----- ------------  ---------------      ----- ------------  ---------------
     7      1.777487  1 O  px                22     -0.844637  3 H  s          
    17      0.844637  2 H  s                  4     -0.728900  1 O  px         
    21     -0.386463  3 H  s                 16      0.386463  2 H  s          
    18      0.300591  2 H  px                23      0.300591  3 H  px         
    25      0.192254  3 H  pz                20     -0.192254  2 H  pz         
 
 Vector   13  Occ=0.000000D+00  E= 1.423386D+00  Symmetry=a1
              MO Center=  5.6D-17,  2.1D-22,  8.1D-02, r^2= 1.4D+00
   Bfn.  Coefficient  Atom+Function         Bfn.  Coefficient  Atom+Function  
  ----- ------------  ---------------      ----- ------------  ---------------
     3      1.076245  1 O  s                  2     -0.632792  1 O  s          
     9     -0.544216  1 O  pz                20      0.527071  2 H  pz         
    25      0.527071  3 H  pz                23     -0.297555  3 H  px         
    18      0.297555  2 H  px                 1     -0.284010  1 O  s          
    22     -0.279814  3 H  s                 17     -0.279814  2 H  s          
 
 Vector   14  Occ=0.000000D+00  E= 1.478886D+00  Symmetry=a2
              MO Center= -1.2D-15, -1.2D-17,  4.2D-01, r^2= 1.0D+00
   Bfn.  Coefficient  Atom+Function         Bfn.  Coefficient  Atom+Function  
  ----- ------------  ---------------      ----- ------------  ---------------
    19      0.686678  2 H  py                24     -0.686678  3 H  py         
    11     -0.224196  1 O  dxy        
 
 Vector   15  Occ=0.000000D+00  E= 1.677536D+00  Symmetry=b2
              MO Center=  8.9D-16,  2.5D-20,  2.9D-01, r^2= 1.2D+00
   Bfn.  Coefficient  Atom+Function         Bfn.  Coefficient  Atom+Function  
  ----- ------------  ---------------      ----- ------------  ---------------
    24      0.769695  3 H  py                19      0.769695  2 H  py         
     8     -0.625854  1 O  py                14      0.276815  1 O  dyz        
 

 center of mass
 --------------
 x =   0.00000000 y =   0.00000000 z =  -0.10071006

 moments of inertia (a.u.)
 ------------------
           2.136240898701           0.000000000000           0.000000000000
           0.000000000000           6.166408917996           0.000000000000
           0.000000000000           0.000000000000           4.030168019295
 
  Mulliken analysis of the total density
  --------------------------------------

    Atom       Charge   Shell Charges
 -----------   ------   -------------------------------------------------------
    1 O    8     8.29   2.00  0.83  0.81  2.83  1.80  0.02
    2 H    1     0.86   0.70  0.07  0.09
    3 H    1     0.86   0.70  0.07  0.09
 
       Multipole analysis of the density wrt the origin
       ------------------------------------------------
 
     L   x y z        total         open         nuclear
     -   - - -        -----         ----         -------
     0   0 0 0      0.000000      0.000000     10.000000
 
     1   1 0 0      0.000000      0.000000      0.000000
     1   0 1 0      0.000000      0.000000      0.000000
     1   0 0 1      0.804069      0.000000     -0.044840
 
     2   2 0 0     -3.086214      0.000000      3.998877
     2   1 1 0      0.000000      0.000000      0.000000
     2   1 0 1      0.000000      0.000000      0.000000
     2   0 2 0     -5.209500      0.000000      0.000000
     2   0 1 1      0.000000      0.000000      0.000000
     2   0 0 2     -4.388019      0.000000      1.909617
 

 Parallel integral file used       1 records with       0 large values

                              NWChem Gradients Module
                              -----------------------
 
 
                      water cc-pvdz SCF geometry optimization
 

  wavefunction    =   RHF     

  Using symmetry


                         RHF ENERGY GRADIENTS

    atom               coordinates                        gradient
                 x          y          z           x          y          z
   1 O       0.000000   0.000000  -0.222968    0.000000   0.000000   0.001461
   2 H      -1.414015   0.000000   0.869453    0.000647   0.000000  -0.000730
   3 H       1.414015   0.000000   0.869453   -0.000647   0.000000  -0.000730
 
                 ----------------------------------------
                 |  Time  |  1-e(secs)   |  2-e(secs)   |
                 ----------------------------------------
                 |  CPU   |       0.00   |       0.23   |
                 ----------------------------------------
                 |  WALL  |       0.00   |       0.23   |
                 ----------------------------------------

  Step       Energy      Delta E   Gmax     Grms     Xrms     Xmax   Walltime
  ---- ---------------- -------- -------- -------- -------- -------- --------
@    1     -76.02738715 -3.0D-05  0.00096  0.00079  0.00575  0.01088      1.6
                                                                    



                                Z-matrix (autoz)
                                -------- 

 Units are Angstrom for bonds and degrees for angles
 
      Type          Name      I     J     K     L     M      Value     Gradient
      ----------- --------  ----- ----- ----- ----- ----- ---------- ----------
    1 Stretch                  1     2                       0.94556   -0.00096
    2 Stretch                  1     3                       0.94556   -0.00096
    3 Bend                     2     1     3               104.62301    0.00017
 
                                 NWChem SCF Module
                                 -----------------
 
 
                      water cc-pvdz SCF geometry optimization
 
 

  ao basis        = "ao basis"
  functions       =    25
  atoms           =     3
  closed shells   =     5
  open shells     =     0
  charge          =   0.00
  wavefunction    = RHF 
  input vectors   = ./water_basis.movecs
  output vectors  = ./water_basis.movecs
  use symmetry    = T
  symmetry adapt  = T


 Summary of "ao basis" -> "ao basis" (cartesian)
 ------------------------------------------------------------------------------
       Tag                 Description            Shells   Functions and Types
 ---------------- ------------------------------  ------  ---------------------
 O                          cc-pvdz                  6       15   3s2p1d
 H                          cc-pvdz                  3        5   2s1p


      Symmetry analysis of basis
      --------------------------
 
        a1         12
        a2          2
        b1          7
        b2          4
 

 Forming initial guess at       1.7s


 Loading old vectors from job with title :

water cc-pvdz SCF geometry optimization

 
      Symmetry analysis of molecular orbitals - initial
      -------------------------------------------------
 
  Numbering of irreducible representations: 
 
     1 a1          2 a2          3 b1          4 b2      
 
  Orbital symmetries:
 
     1 a1          2 a1          3 b1          4 a1          5 b2      
     6 a1          7 b1          8 b1          9 a1         10 a1      
    11 b2         12 b1         13 a1         14 a2         15 b2      
 

 Starting SCF solution at       1.7s



 ----------------------------------------------
         Quadratically convergent ROHF

 Convergence threshold     :          1.000E-04
 Maximum no. of iterations :           20
 Final Fock-matrix accuracy:          1.000E-07
 ----------------------------------------------


 #quartets = 1.953D+03 #integrals = 1.805D+04 #direct =  0.0% #cached =100.0%


 Integral file          = ./water_basis.aoints.0
 Record size in doubles =  65536        No. of integs per rec  =  43688
 Max. records in memory =      2        Max. records in file   = 173496
 No. of bits per label  =      8        No. of bits per value  =     64


              iter       energy          gnorm     gmax       time
             ----- ------------------- --------- --------- --------
                 1      -76.0273870041  4.82D-03  2.50D-03      1.2
                 2      -76.0273887971  1.87D-05  7.42D-06      1.2


       Final RHF  results 
       ------------------ 

         Total SCF energy =    -76.027388797084
      One-electron energy =   -123.325625961457
      Two-electron energy =     38.001996848112
 Nuclear repulsion energy =      9.296240316261

        Time for solution =      0.1s


 
       Symmetry analysis of molecular orbitals - final
       -----------------------------------------------
 
  Numbering of irreducible representations: 
 
     1 a1          2 a2          3 b1          4 b2      
 
  Orbital symmetries:
 
     1 a1          2 a1          3 b1          4 a1          5 b2      
     6 a1          7 b1          8 b1          9 a1         10 a1      
    11 b2         12 b1         13 a1         14 a2         15 b2      
 
             Final eigenvalues
             -----------------

              1      
    1  -20.5500
    2   -1.3424
    3   -0.7051
    4   -0.5690
    5   -0.4943
    6    0.1851
    7    0.2576
    8    0.7965
    9    0.8647
   10    1.1582
   11    1.2000
   12    1.2526
   13    1.4220
   14    1.4792
   15    1.6762
 
                       ROHF Final Molecular Orbital Analysis
                       -------------------------------------
 
 Vector    2  Occ=2.000000D+00  E=-1.342414D+00  Symmetry=a1
              MO Center= -1.2D-17,  1.3D-23,  5.4D-02, r^2= 5.0D-01
   Bfn.  Coefficient  Atom+Function         Bfn.  Coefficient  Atom+Function  
  ----- ------------  ---------------      ----- ------------  ---------------
     2      0.439826  1 O  s                  3      0.361702  1 O  s          
    16      0.198044  2 H  s                 21      0.198044  3 H  s          
 
 Vector    3  Occ=2.000000D+00  E=-7.050898D-01  Symmetry=b1
              MO Center= -5.6D-17,  3.2D-21,  1.0D-01, r^2= 7.6D-01
   Bfn.  Coefficient  Atom+Function         Bfn.  Coefficient  Atom+Function  
  ----- ------------  ---------------      ----- ------------  ---------------
     4      0.491611  1 O  px                16     -0.330057  2 H  s          
    21      0.330057  3 H  s                  7      0.218801  1 O  px         
 
 Vector    4  Occ=2.000000D+00  E=-5.689854D-01  Symmetry=a1
              MO Center= -1.7D-17,  4.2D-23, -1.7D-01, r^2= 6.7D-01
   Bfn.  Coefficient  Atom+Function         Bfn.  Coefficient  Atom+Function  
  ----- ------------  ---------------      ----- ------------  ---------------
     6      0.546959  1 O  pz                 3     -0.368442  1 O  s          
     9      0.362756  1 O  pz                16      0.206489  2 H  s          
    21      0.206489  3 H  s                  2     -0.154392  1 O  s          
 
 Vector    5  Occ=2.000000D+00  E=-4.943102D-01  Symmetry=b2
              MO Center=  8.7D-19, -5.3D-22, -9.5D-02, r^2= 6.0D-01
   Bfn.  Coefficient  Atom+Function         Bfn.  Coefficient  Atom+Function  
  ----- ------------  ---------------      ----- ------------  ---------------
     5      0.630941  1 O  py                 8      0.495022  1 O  py         
 
 Vector    6  Occ=0.000000D+00  E= 1.851060D-01  Symmetry=a1
              MO Center= -8.2D-17, -2.6D-20,  6.2D-01, r^2= 3.0D+00
   Bfn.  Coefficient  Atom+Function         Bfn.  Coefficient  Atom+Function  
  ----- ------------  ---------------      ----- ------------  ---------------
     3      1.077153  1 O  s                 17     -0.842237  2 H  s          
    22     -0.842237  3 H  s                  9      0.336483  1 O  pz         
     6      0.185260  1 O  pz         
 
 Vector    7  Occ=0.000000D+00  E= 2.576331D-01  Symmetry=b1
              MO Center= -3.0D-16, -8.2D-22,  6.1D-01, r^2= 3.6D+00
   Bfn.  Coefficient  Atom+Function         Bfn.  Coefficient  Atom+Function  
  ----- ------------  ---------------      ----- ------------  ---------------
    17      1.464928  2 H  s                 22     -1.464928  3 H  s          
     7      0.671126  1 O  px                 4      0.280171  1 O  px         
 
 Vector    8  Occ=0.000000D+00  E= 7.964758D-01  Symmetry=b1
              MO Center=  6.9D-17, -6.4D-21,  2.3D-01, r^2= 1.6D+00
   Bfn.  Coefficient  Atom+Function         Bfn.  Coefficient  Atom+Function  
  ----- ------------  ---------------      ----- ------------  ---------------
    16      0.946011  2 H  s                 21     -0.946011  3 H  s          
    17     -0.669743  2 H  s                 22      0.669743  3 H  s          
     7      0.481604  1 O  px                 4      0.264014  1 O  px         
    12     -0.195081  1 O  dxz               20      0.155818  2 H  pz         
    25     -0.155818  3 H  pz         
 
 Vector    9  Occ=0.000000D+00  E= 8.646549D-01  Symmetry=a1
              MO Center=  1.5D-16,  1.8D-24,  4.6D-01, r^2= 1.6D+00
   Bfn.  Coefficient  Atom+Function         Bfn.  Coefficient  Atom+Function  
  ----- ------------  ---------------      ----- ------------  ---------------
    16      0.776219  2 H  s                 21      0.776219  3 H  s          
    22     -0.540206  3 H  s                 17     -0.540206  2 H  s          
     6     -0.331548  1 O  pz                 3      0.316984  1 O  s          
    18     -0.305602  2 H  px                23      0.305602  3 H  px         
     2     -0.252822  1 O  s          
 
 Vector   10  Occ=0.000000D+00  E= 1.158177D+00  Symmetry=a1
              MO Center=  2.8D-17, -2.2D-22, -2.0D-01, r^2= 1.2D+00
   Bfn.  Coefficient  Atom+Function         Bfn.  Coefficient  Atom+Function  
  ----- ------------  ---------------      ----- ------------  ---------------
     9      1.281699  1 O  pz                 6     -0.744847  1 O  pz         
     3      0.589860  1 O  s                 21     -0.556581  3 H  s          
    16     -0.556581  2 H  s                 20      0.237382  2 H  pz         
    25      0.237382  3 H  pz                 2      0.150025  1 O  s          
 
 Vector   11  Occ=0.000000D+00  E= 1.200020D+00  Symmetry=b2
              MO Center= -2.0D-39, -3.7D-20, -1.2D-01, r^2= 1.1D+00
   Bfn.  Coefficient  Atom+Function         Bfn.  Coefficient  Atom+Function  
  ----- ------------  ---------------      ----- ------------  ---------------
     8      1.034189  1 O  py                 5     -0.967390  1 O  py         
 
 Vector   12  Occ=0.000000D+00  E= 1.252555D+00  Symmetry=b1
              MO Center=  2.3D-16,  2.1D-20, -1.2D-01, r^2= 1.7D+00
   Bfn.  Coefficient  Atom+Function         Bfn.  Coefficient  Atom+Function  
  ----- ------------  ---------------      ----- ------------  ---------------
     7      1.775320  1 O  px                22     -0.843212  3 H  s          
    17      0.843212  2 H  s                  4     -0.730031  1 O  px         
    16      0.384880  2 H  s                 21     -0.384880  3 H  s          
    23      0.299885  3 H  px                18      0.299885  2 H  px         
    20     -0.192774  2 H  pz                25      0.192774  3 H  pz         
 
 Vector   13  Occ=0.000000D+00  E= 1.422044D+00  Symmetry=a1
              MO Center=  2.8D-17,  7.6D-23,  8.1D-02, r^2= 1.4D+00
   Bfn.  Coefficient  Atom+Function         Bfn.  Coefficient  Atom+Function  
  ----- ------------  ---------------      ----- ------------  ---------------
     3      1.061410  1 O  s                  2     -0.628106  1 O  s          
     9     -0.548709  1 O  pz                20      0.525613  2 H  pz         
    25      0.525613  3 H  pz                23     -0.301053  3 H  px         
    18      0.301053  2 H  px                 1     -0.281664  1 O  s          
    22     -0.277395  3 H  s                 17     -0.277395  2 H  s          
 
 Vector   14  Occ=0.000000D+00  E= 1.479187D+00  Symmetry=a2
              MO Center= -1.4D-15, -1.2D-17,  4.2D-01, r^2= 1.0D+00
   Bfn.  Coefficient  Atom+Function         Bfn.  Coefficient  Atom+Function  
  ----- ------------  ---------------      ----- ------------  ---------------
    19      0.686706  2 H  py                24     -0.686706  3 H  py         
    11     -0.224671  1 O  dxy        
 
 Vector   15  Occ=0.000000D+00  E= 1.676174D+00  Symmetry=b2
              MO Center=  8.9D-16,  4.5D-20,  2.9D-01, r^2= 1.2D+00
   Bfn.  Coefficient  Atom+Function         Bfn.  Coefficient  Atom+Function  
  ----- ------------  ---------------      ----- ------------  ---------------
    24      0.769168  3 H  py                19      0.769168  2 H  py         
     8     -0.626537  1 O  py                14      0.276932  1 O  dyz        
 

 center of mass
 --------------
 x =   0.00000000 y =   0.00000000 z =  -0.10281203

 moments of inertia (a.u.)
 ------------------
           2.151085545341           0.000000000000           0.000000000000
           0.000000000000           6.181355815429           0.000000000000
           0.000000000000           0.000000000000           4.030270270088
 
  Mulliken analysis of the total density
  --------------------------------------

    Atom       Charge   Shell Charges
 -----------   ------   -------------------------------------------------------
    1 O    8     8.29   2.00  0.83  0.81  2.83  1.80  0.02
    2 H    1     0.85   0.70  0.07  0.09
    3 H    1     0.85   0.70  0.07  0.09
 
       Multipole analysis of the density wrt the origin
       ------------------------------------------------
 
     L   x y z        total         open         nuclear
     -   - - -        -----         ----         -------
     0   0 0 0      0.000000      0.000000     10.000000
 
     1   1 0 0      0.000000      0.000000      0.000000
     1   0 1 0      0.000000      0.000000      0.000000
     1   0 0 1      0.805679      0.000000     -0.062522
 
     2   2 0 0     -3.090361      0.000000      3.998978
     2   1 1 0      0.000000      0.000000      0.000000
     2   1 0 1      0.000000      0.000000      0.000000
     2   0 2 0     -5.211486      0.000000      0.000000
     2   0 1 1      0.000000      0.000000      0.000000
     2   0 0 2     -4.387575      0.000000      1.923075
 

 Parallel integral file used       1 records with       0 large values

 Line search: 
     step= 1.00 grad=-5.6D-06 hess= 3.9D-06 energy=    -76.027389 mode=downhill
 new step= 0.71                   predicted energy=    -76.027389

          --------
          Step   2
          --------
 
 
                         Geometry "geometry" -> "geometry"
                         ---------------------------------
 
 Output coordinates in angstroms (scale by  1.889725989 to convert to a.u.)
 
  No.       Tag          Charge          X              Y              Z
 ---- ---------------- ---------- -------------- -------------- --------------
    1 O                    8.0000     0.00000000     0.00000000    -0.11893892
    2 H                    1.0000    -0.74827178     0.00000000     0.46056946
    3 H                    1.0000     0.74827178     0.00000000     0.46056946
 
      Atomic Mass 
      ----------- 
 
      O                 15.994910
      H                  1.007825
 

 Effective nuclear repulsion energy (a.u.)       9.2996226966

            Nuclear Dipole moment (a.u.) 
            ----------------------------
        X                 Y               Z
 ---------------- ---------------- ----------------
     0.0000000000     0.0000000000    -0.0573955536
 
      Symmetry information
      --------------------
 
 Group name             C2v       
 Group number             16
 Group order               4
 No. of unique centers     2
 
      Symmetry unique atoms
 
     1    2
 
                                 NWChem SCF Module
                                 -----------------
 
 
                      water cc-pvdz SCF geometry optimization
 
 

  ao basis        = "ao basis"
  functions       =    25
  atoms           =     3
  closed shells   =     5
  open shells     =     0
  charge          =   0.00
  wavefunction    = RHF 
  input vectors   = ./water_basis.movecs
  output vectors  = ./water_basis.movecs
  use symmetry    = T
  symmetry adapt  = T


 Summary of "ao basis" -> "ao basis" (cartesian)
 ------------------------------------------------------------------------------
       Tag                 Description            Shells   Functions and Types
 ---------------- ------------------------------  ------  ---------------------
 O                          cc-pvdz                  6       15   3s2p1d
 H                          cc-pvdz                  3        5   2s1p


      Symmetry analysis of basis
      --------------------------
 
        a1         12
        a2          2
        b1          7
        b2          4
 

 Forming initial guess at       1.9s


 Loading old vectors from job with title :

water cc-pvdz SCF geometry optimization

 
      Symmetry analysis of molecular orbitals - initial
      -------------------------------------------------
 
  Numbering of irreducible representations: 
 
     1 a1          2 a2          3 b1          4 b2      
 
  Orbital symmetries:
 
     1 a1          2 a1          3 b1          4 a1          5 b2      
     6 a1          7 b1          8 b1          9 a1         10 a1      
    11 b2         12 b1         13 a1         14 a2         15 b2      
 

 Starting SCF solution at       1.9s



 ----------------------------------------------
         Quadratically convergent ROHF

 Convergence threshold     :          1.000E-04
 Maximum no. of iterations :           20
 Final Fock-matrix accuracy:          1.000E-07
 ----------------------------------------------


 #quartets = 1.953D+03 #integrals = 1.805D+04 #direct =  0.0% #cached =100.0%


 Integral file          = ./water_basis.aoints.0
 Record size in doubles =  65536        No. of integs per rec  =  43688
 Max. records in memory =      2        Max. records in file   = 173496
 No. of bits per label  =      8        No. of bits per value  =     64


              iter       energy          gnorm     gmax       time
             ----- ------------------- --------- --------- --------
                 1      -76.0273889739  1.40D-03  7.31D-04      1.4
                 2      -76.0273891245  5.35D-06  2.14D-06      1.4


       Final RHF  results 
       ------------------ 

         Total SCF energy =    -76.027389124502
      One-electron energy =   -123.331771116615
      Two-electron energy =     38.004759295493
 Nuclear repulsion energy =      9.299622696621

        Time for solution =      0.1s


 
       Symmetry analysis of molecular orbitals - final
       -----------------------------------------------
 
  Numbering of irreducible representations: 
 
     1 a1          2 a2          3 b1          4 b2      
 
  Orbital symmetries:
 
     1 a1          2 a1          3 b1          4 a1          5 b2      
     6 a1          7 b1          8 b1          9 a1         10 a1      
    11 b2         12 b1         13 a1         14 a2         15 b2      
 
             Final eigenvalues
             -----------------

              1      
    1  -20.5499
    2   -1.3426
    3   -0.7054
    4   -0.5689
    5   -0.4943
    6    0.1852
    7    0.2577
    8    0.7969
    9    0.8647
   10    1.1581
   11    1.2000
   12    1.2525
   13    1.4224
   14    1.4791
   15    1.6766
 
                       ROHF Final Molecular Orbital Analysis
                       -------------------------------------
 
 Vector    2  Occ=2.000000D+00  E=-1.342556D+00  Symmetry=a1
              MO Center=  3.9D-18,  8.3D-24,  5.5D-02, r^2= 5.0D-01
   Bfn.  Coefficient  Atom+Function         Bfn.  Coefficient  Atom+Function  
  ----- ------------  ---------------      ----- ------------  ---------------
     2      0.439788  1 O  s                  3      0.361490  1 O  s          
    21      0.198164  3 H  s                 16      0.198164  2 H  s          
 
 Vector    3  Occ=2.000000D+00  E=-7.053932D-01  Symmetry=b1
              MO Center=  5.0D-17,  3.4D-21,  1.0D-01, r^2= 7.6D-01
   Bfn.  Coefficient  Atom+Function         Bfn.  Coefficient  Atom+Function  
  ----- ------------  ---------------      ----- ------------  ---------------
     4      0.491632  1 O  px                16     -0.330165  2 H  s          
    21      0.330165  3 H  s                  7      0.218593  1 O  px         
 
 Vector    4  Occ=2.000000D+00  E=-5.689361D-01  Symmetry=a1
              MO Center= -1.6D-17,  3.1D-23, -1.7D-01, r^2= 6.7D-01
   Bfn.  Coefficient  Atom+Function         Bfn.  Coefficient  Atom+Function  
  ----- ------------  ---------------      ----- ------------  ---------------
     6      0.547061  1 O  pz                 3     -0.368385  1 O  s          
     9      0.362876  1 O  pz                16      0.206386  2 H  s          
    21      0.206386  3 H  s                  2     -0.154348  1 O  s          
 
 Vector    5  Occ=2.000000D+00  E=-4.943175D-01  Symmetry=b2
              MO Center=  8.0D-45, -5.4D-22, -9.5D-02, r^2= 6.0D-01
   Bfn.  Coefficient  Atom+Function         Bfn.  Coefficient  Atom+Function  
  ----- ------------  ---------------      ----- ------------  ---------------
     5      0.630923  1 O  py                 8      0.495015  1 O  py         
 
 Vector    6  Occ=0.000000D+00  E= 1.851771D-01  Symmetry=a1
              MO Center= -1.1D-17,  1.5D-24,  6.2D-01, r^2= 3.0D+00
   Bfn.  Coefficient  Atom+Function         Bfn.  Coefficient  Atom+Function  
  ----- ------------  ---------------      ----- ------------  ---------------
     3      1.077606  1 O  s                 17     -0.842433  2 H  s          
    22     -0.842433  3 H  s                  9      0.336183  1 O  pz         
     6      0.185068  1 O  pz         
 
 Vector    7  Occ=0.000000D+00  E= 2.576757D-01  Symmetry=b1
              MO Center=  1.7D-16,  2.3D-22,  6.1D-01, r^2= 3.6D+00
   Bfn.  Coefficient  Atom+Function         Bfn.  Coefficient  Atom+Function  
  ----- ------------  ---------------      ----- ------------  ---------------
    17      1.465334  2 H  s                 22     -1.465334  3 H  s          
     7      0.671196  1 O  px                 4      0.280039  1 O  px         
 
 Vector    8  Occ=0.000000D+00  E= 7.969346D-01  Symmetry=b1
              MO Center=  1.2D-16, -5.0D-23,  2.3D-01, r^2= 1.6D+00
   Bfn.  Coefficient  Atom+Function         Bfn.  Coefficient  Atom+Function  
  ----- ------------  ---------------      ----- ------------  ---------------
    16      0.946048  2 H  s                 21     -0.946048  3 H  s          
    22      0.668934  3 H  s                 17     -0.668934  2 H  s          
     7      0.482272  1 O  px                 4      0.264057  1 O  px         
    12     -0.195135  1 O  dxz               20      0.156070  2 H  pz         
    25     -0.156070  3 H  pz         
 
 Vector    9  Occ=0.000000D+00  E= 8.647455D-01  Symmetry=a1
              MO Center= -1.7D-17,  7.1D-25,  4.6D-01, r^2= 1.6D+00
   Bfn.  Coefficient  Atom+Function         Bfn.  Coefficient  Atom+Function  
  ----- ------------  ---------------      ----- ------------  ---------------
    16      0.776249  2 H  s                 21      0.776249  3 H  s          
    17     -0.539856  2 H  s                 22     -0.539856  3 H  s          
     6     -0.331094  1 O  pz                 3      0.315933  1 O  s          
    18     -0.305817  2 H  px                23      0.305817  3 H  px         
     2     -0.252530  1 O  s          
 
 Vector   10  Occ=0.000000D+00  E= 1.158114D+00  Symmetry=a1
              MO Center= -5.6D-17, -1.5D-22, -2.0D-01, r^2= 1.2D+00
   Bfn.  Coefficient  Atom+Function         Bfn.  Coefficient  Atom+Function  
  ----- ------------  ---------------      ----- ------------  ---------------
     9      1.282041  1 O  pz                 6     -0.745054  1 O  pz         
     3      0.591379  1 O  s                 16     -0.556672  2 H  s          
    21     -0.556672  3 H  s                 20      0.237050  2 H  pz         
    25      0.237050  3 H  pz         
 
 Vector   11  Occ=0.000000D+00  E= 1.200030D+00  Symmetry=b2
              MO Center= -2.2D-19, -6.6D-20, -1.2D-01, r^2= 1.1D+00
   Bfn.  Coefficient  Atom+Function         Bfn.  Coefficient  Atom+Function  
  ----- ------------  ---------------      ----- ------------  ---------------
     8      1.034500  1 O  py                 5     -0.967374  1 O  py         
 
 Vector   12  Occ=0.000000D+00  E= 1.252481D+00  Symmetry=b1
              MO Center=  2.1D-16,  1.4D-35, -1.2D-01, r^2= 1.7D+00
   Bfn.  Coefficient  Atom+Function         Bfn.  Coefficient  Atom+Function  
  ----- ------------  ---------------      ----- ------------  ---------------
     7      1.775948  1 O  px                22     -0.843625  3 H  s          
    17      0.843625  2 H  s                  4     -0.729702  1 O  px         
    21     -0.385339  3 H  s                 16      0.385339  2 H  s          
    18      0.300090  2 H  px                23      0.300090  3 H  px         
    20     -0.192624  2 H  pz                25      0.192624  3 H  pz         
 
 Vector   13  Occ=0.000000D+00  E= 1.422433D+00  Symmetry=a1
              MO Center= -8.3D-17,  1.1D-22,  8.1D-02, r^2= 1.4D+00
   Bfn.  Coefficient  Atom+Function         Bfn.  Coefficient  Atom+Function  
  ----- ------------  ---------------      ----- ------------  ---------------
     3      1.065706  1 O  s                  2     -0.629465  1 O  s          
     9     -0.547407  1 O  pz                20      0.526038  2 H  pz         
    25      0.526038  3 H  pz                23     -0.300040  3 H  px         
    18      0.300040  2 H  px                 1     -0.282345  1 O  s          
    17     -0.278096  2 H  s                 22     -0.278096  3 H  s          
 
 Vector   14  Occ=0.000000D+00  E= 1.479100D+00  Symmetry=a2
              MO Center= -1.2D-15, -1.2D-17,  4.2D-01, r^2= 1.0D+00
   Bfn.  Coefficient  Atom+Function         Bfn.  Coefficient  Atom+Function  
  ----- ------------  ---------------      ----- ------------  ---------------
    19      0.686697  2 H  py                24     -0.686697  3 H  py         
    11     -0.224534  1 O  dxy        
 
 Vector   15  Occ=0.000000D+00  E= 1.676568D+00  Symmetry=b2
              MO Center=  8.9D-16,  4.5D-20,  2.9D-01, r^2= 1.2D+00
   Bfn.  Coefficient  Atom+Function         Bfn.  Coefficient  Atom+Function  
  ----- ------------  ---------------      ----- ------------  ---------------
    24      0.769321  3 H  py                19      0.769321  2 H  py         
     8     -0.626339  1 O  py                14      0.276898  1 O  dyz        
 

 center of mass
 --------------
 x =   0.00000000 y =   0.00000000 z =  -0.10220261

 moments of inertia (a.u.)
 ------------------
           2.146776406121           0.000000000000           0.000000000000
           0.000000000000           6.177022150417           0.000000000000
           0.000000000000           0.000000000000           4.030245744296
 
  Mulliken analysis of the total density
  --------------------------------------

    Atom       Charge   Shell Charges
 -----------   ------   -------------------------------------------------------
    1 O    8     8.29   2.00  0.83  0.81  2.83  1.80  0.02
    2 H    1     0.86   0.70  0.07  0.09
    3 H    1     0.86   0.70  0.07  0.09
 
       Multipole analysis of the density wrt the origin
       ------------------------------------------------
 
     L   x y z        total         open         nuclear
     -   - - -        -----         ----         -------
     0   0 0 0      0.000000      0.000000     10.000000
 
     1   1 0 0      0.000000      0.000000      0.000000
     1   0 1 0      0.000000      0.000000      0.000000
     1   0 0 1      0.805210      0.000000     -0.057396
 
     2   2 0 0     -3.089149      0.000000      3.998954
     2   1 1 0      0.000000      0.000000      0.000000
     2   1 0 1      0.000000      0.000000      0.000000
     2   0 2 0     -5.210909      0.000000      0.000000
     2   0 1 1      0.000000      0.000000      0.000000
     2   0 0 2     -4.387710      0.000000      1.919162
 

 Parallel integral file used       1 records with       0 large values

                              NWChem Gradients Module
                              -----------------------
 
 
                      water cc-pvdz SCF geometry optimization
 

  wavefunction    =   RHF     

  Using symmetry


                         RHF ENERGY GRADIENTS

    atom               coordinates                        gradient
                 x          y          z           x          y          z
   1 O       0.000000   0.000000  -0.224762    0.000000   0.000000   0.000000
   2 H      -1.414029   0.000000   0.870350    0.000003   0.000000   0.000000
   3 H       1.414029   0.000000   0.870350   -0.000003   0.000000   0.000000
 
                 ----------------------------------------
                 |  Time  |  1-e(secs)   |  2-e(secs)   |
                 ----------------------------------------
                 |  CPU   |       0.00   |       0.23   |
                 ----------------------------------------
                 |  WALL  |       0.00   |       0.23   |
                 ----------------------------------------

  Step       Energy      Delta E   Gmax     Grms     Xrms     Xmax   Walltime
  ---- ---------------- -------- -------- -------- -------- -------- --------
@    2     -76.02738912 -2.0D-06  0.00000  0.00000  0.00073  0.00179      2.4
                                     ok       ok       ok       ok  



                                Z-matrix (autoz)
                                -------- 

 Units are Angstrom for bonds and degrees for angles
 
      Type          Name      I     J     K     L     M      Value     Gradient
      ----------- --------  ----- ----- ----- ----- ----- ---------- ----------
    1 Stretch                  1     2                       0.94644    0.00000
    2 Stretch                  1     3                       0.94644    0.00000
    3 Bend                     2     1     3               104.48713    0.00000
 

      ----------------------
      Optimization converged
      ----------------------


  Step       Energy      Delta E   Gmax     Grms     Xrms     Xmax   Walltime
  ---- ---------------- -------- -------- -------- -------- -------- --------
@    2     -76.02738912 -2.0D-06  0.00000  0.00000  0.00073  0.00179      2.4
                                     ok       ok       ok       ok  



                                Z-matrix (autoz)
                                -------- 

 Units are Angstrom for bonds and degrees for angles
 
      Type          Name      I     J     K     L     M      Value     Gradient
      ----------- --------  ----- ----- ----- ----- ----- ---------- ----------
    1 Stretch                  1     2                       0.94644    0.00000
    2 Stretch                  1     3                       0.94644    0.00000
    3 Bend                     2     1     3               104.48713    0.00000
 
 
 
                         Geometry "geometry" -> "geometry"
                         ---------------------------------
 
 Output coordinates in angstroms (scale by  1.889725989 to convert to a.u.)
 
  No.       Tag          Charge          X              Y              Z
 ---- ---------------- ---------- -------------- -------------- --------------
    1 O                    8.0000     0.00000000     0.00000000    -0.11893892
    2 H                    1.0000    -0.74827178     0.00000000     0.46056946
    3 H                    1.0000     0.74827178     0.00000000     0.46056946
 
      Atomic Mass 
      ----------- 
 
      O                 15.994910
      H                  1.007825
 

 Effective nuclear repulsion energy (a.u.)       9.2996226966

            Nuclear Dipole moment (a.u.) 
            ----------------------------
        X                 Y               Z
 ---------------- ---------------- ----------------
     0.0000000000     0.0000000000    -0.0573955536
 
      Symmetry information
      --------------------
 
 Group name             C2v       
 Group number             16
 Group order               4
 No. of unique centers     2
 
      Symmetry unique atoms
 
     1    2
 
 
                Final and change from initial internal coordinates
                --------------------------------------------------
 


                                Z-matrix (autoz)
                                -------- 

 Units are Angstrom for bonds and degrees for angles
 
      Type          Name      I     J     K     L     M      Value       Change
      ----------- --------  ----- ----- ----- ----- ----- ---------- ----------
    1 Stretch                  1     2                       0.94644   -0.00058
    2 Stretch                  1     3                       0.94644   -0.00058
    3 Bend                     2     1     3               104.48713   -1.04706
 
 ==============================================================================
                                internuclear distances
 ------------------------------------------------------------------------------
       center one      |      center two      | atomic units |  angstroms
 ------------------------------------------------------------------------------
    2 H                |   1 O                |     1.78850  |     0.94644
    3 H                |   1 O                |     1.78850  |     0.94644
 ------------------------------------------------------------------------------
                         number of included internuclear distances:          2
 ==============================================================================



 ==============================================================================
                                 internuclear angles
 ------------------------------------------------------------------------------
        center 1       |       center 2       |       center 3       |  degrees
 ------------------------------------------------------------------------------
    2 H                |   1 O                |   3 H                |   104.49
 ------------------------------------------------------------------------------
                            number of included internuclear angles:          1
 ==============================================================================




 Task  times  cpu:        1.6s     wall:        2.3s
 
 
                                NWChem Input Module
                                -------------------
 
 
deb64 cluster:0 nodes:1 master=0
 Summary of allocated global arrays
-----------------------------------
  No active global arrays



                         GA Statistics for process    0
                         ------------------------------

       create   destroy   get      put      acc     scatter   gather  read&inc
calls:  937      937     2.14e+04 7322     3901        3        0        0     
number of processes/call 1.00e+00 1.00e+00 1.00e+00 1.00e+00 0.00e+00
bytes total:             6.96e+06 3.53e+06 1.86e+06 1.20e+02 0.00e+00 0.00e+00
bytes remote:            0.00e+00 0.00e+00 0.00e+00 0.00e+00 0.00e+00 0.00e+00
Max memory consumed for GA by this process: 65000 bytes
 



                                  ACKNOWLEDGEMENT
                                  ---------------

            Please use the following acknowledgement where appropriate 
            for results obtained with NWChem:

            High Performance Computational Chemistry Group, "NWChem, A
            Computational Chemistry Package for Parallel Computers, 
            Version 5.0" (2006), Pacific Northwest National Laboratory,
            Richland, Washington 99352-0999, USA.


                                     CITATION
                                     --------

            Please use the following citation when publishing results
            obtained with NWChem:

            E. J. Bylaska, W. A. de Jong, K. Kowalski, T. P. Straatsma,
            M. Valiev, D. Wang, E. Apra, T. L. Windus, S. Hirata, M. T. Hackler,
            Y. Zhao, P.-D. Fan, R. J. Harrison, M. Dupuis, D. M. A. Smith,
            J. Nieplocha, V. Tipparaju, M. Krishnan, A. A. Auer, M. Nooijen,
            E. Brown, G. Cisneros, G. I. Fann, H. Fruchtl, J. Garza, K. Hirao,
            R. Kendall, J. A. Nichols, K. Tsemekhman, K. Wolinski, J. Anchell,
            D. Bernholdt, P. Borowski, T. Clark, D. Clerc, H. Dachsel, M. Deegan,
            K. Dyall, D. Elwood, E. Glendening, M. Gutowski, A. Hess, J. Jaffe,
            B. Johnson, J. Ju, R. Kobayashi, R. Kutteh, Z. Lin, R. Littlefield,
            X. Long, B. Meng, T. Nakajima, S. Niu, L. Pollack, M. Rosing,
            G. Sandrone, M. Stave, H. Taylor, G. Thomas, J. van Lenthe, A. Wong,
            and Z. Zhang,
            "NWChem, A Computational Chemistry Package for Parallel Computers, 
            Version 5.0" (2006),
                      Pacific Northwest National Laboratory,
                      Richland, Washington 99352-0999, USA.



 Total times  cpu:        1.7s     wall:        2.4s
MA_summarize_allocated_blocks: starting scan ...
MA_summarize_allocated_blocks: scan completed: 0 heap blocks, 0 stack blocks
MA usage statistics:

	allocation statistics:
					      heap	     stack
					      ----	     -----
	current number of blocks	         0	         0
	maximum number of blocks	        20	        29
	current total bytes		         0	         0
	maximum total bytes		   1061440	  22509480
	maximum total K-bytes		      1062	     22510
	maximum total M-bytes		         2	        23

 	  	 
