----- GAMESS execution script -----
This job is running on host negramodelo
under operating system Linux at jue abr 2 16:49:17 CST 2009
Available scratch disk space (Kbyte units) at beginning of the job is
S.ficheros         Bloques de 1K   Usado    Dispon Uso% Montado en
/dev/sda4            104893112  71836636  27728120  73% /

 Distributed Data Interface kickoff program.
 Initiating 1 compute processes on 1 nodes to run the following command:
 /usr/local/gamess/gamess.00.x hoac 

          ******************************************************
          *         GAMESS VERSION = 11 APR 2008 (R1)          *
          *             FROM IOWA STATE UNIVERSITY             *
          * M.W.SCHMIDT, K.K.BALDRIDGE, J.A.BOATZ, S.T.ELBERT, *
          *   M.S.GORDON, J.H.JENSEN, S.KOSEKI, N.MATSUNAGA,   *
          *          K.A.NGUYEN, S.J.SU, T.L.WINDUS,           *
          *       TOGETHER WITH M.DUPUIS, J.A.MONTGOMERY       *
          *         J.COMPUT.CHEM.  14, 1347-1363(1993)        *
          **************** 32 BIT LINUX VERSION ****************

     SINCE 1993, STUDENTS AND POSTDOCS WORKING AT IOWA STATE UNIVERSITY
     AND ALSO IN THEIR VARIOUS JOBS AFTER LEAVING ISU HAVE MADE IMPORTANT
     CONTRIBUTIONS TO THE CODE:
     IVANA ADAMOVIC, CHRISTINE AIKENS, YURI ALEXEEV, POOJA ARORA, ROB BELL,
     PRADIPTA BANDYOPADHYAY, JONATHAN BENTZ, BRETT BODE, GALINA CHABAN,
     WEI CHEN, CHEOL HO CHOI, PAUL DAY, TIM DUDLEY, DMITRI FEDOROV,
     GRAHAM FLETCHER, MARK FREITAG, KURT GLAESEMANN, DAN KEMP, GRANT MERRILL,
     JONATHAN MULLIN, TAKESHI NAGATA, SEAN NEDD, HEATHER NETZLOFF,
     BOSILJKA NJEGIC, RYAN OLSON, MIKE PAK, JIM SHOEMAKER, LYUDMILA SLIPCHENKO,
     SAROM SOK, JIE SONG, TETSUYA TAKETSUGU, SIMON WEBB, SOOHAENG YOO.

     ADDITIONAL CODE HAS BEEN PROVIDED BY COLLABORATORS IN OTHER GROUPS:
     IOWA STATE UNIVERSITY: JOE IVANIC, KLAUS RUEDENBERG
     UNIVERSITY OF TOKYO: KIMIHIKO HIRAO, TAKAHITO NAKAJIMA,
          TAKAO TSUNEDA, MUNEAKI KAMIYA, SUSUMU YANAGISAWA,
          KIYOSHI YAGI, MAHITO CHIBA, SEIKEN TOKURA, NAOAKI KAWAKAMI
     UNIVERSITY OF AARHUS: FRANK JENSEN
     UNIVERSITY OF IOWA: VISVALDAS KAIRYS, HUI LI
     NATIONAL INST. OF STANDARDS AND TECHNOLOGY: WALT STEVENS, DAVID GARMER
     UNIVERSITY OF PISA: BENEDETTA MENNUCCI, JACOPO TOMASI
     UNIVERSITY OF MEMPHIS: HENRY KURTZ, PRAKASHAN KORAMBATH
     UNIVERSITY OF ALBERTA: MARIUSZ KLOBUKOWSKI
     UNIVERSITY OF NEW ENGLAND: MARK SPACKMAN
     MIE UNIVERSITY: HIROAKI UMEDA
     MICHIGAN STATE UNIVERSITY:
          KAROL KOWALSKI, MARTA WLOCH, JEFFREY R. GOUR, PIOTR PIECUCH
     UNIVERSITY OF SILESIA: MONIKA MUSIAL, STANISLAW KUCHARSKI
     FACULTES UNIVERSITAIRES NOTRE-DAME DE LA PAIX:
          OLIVIER QUINET, BENOIT CHAMPAGNE
     UNIVERSITY OF CALIFORNIA - SANTA BARBARA: BERNARD KIRTMAN
     INSTITUTE FOR MOLECULAR SCIENCE: KAZUYA ISHIMURA AND SHIGERU NAGASE
     UNIVERSITY OF NOTRE DAME: DAN CHIPMAN
     KYUSHU UNIVERSITY:
          HARUYUKI NAKANO,
          FENG LONG GU, JACEK KORCHOWIEC, MARCIN MAKOWSKI, AND YURIKO AOKI,
          HIROTOSHI MORI AND EISAKU MIYOSHI
     PENNSYLVANIA STATE UNIVERSITY:
          TZVETELIN IORDANOV, CHET SWALINA, JONATHAN SKONE,
          SHARON HAMMES-SCHIFFER

 EXECUTION OF GAMESS BEGUN Thu Apr  2 16:49:18 2009

            ECHO OF THE FIRST FEW INPUT CARDS -
 INPUT CARD> $CONTRL COORD=CART UNITS=ANGS RUNTYP=ENERGY $END                               
 INPUT CARD> $BASIS GBASIS=N31 NGAUSS=6 NDFUNC=1 $END                                       
 INPUT CARD> $NBO AONBO=P $END                                                              
 INPUT CARD> $DATA                                                                          
 INPUT CARD>                                                                                
 INPUT CARD>C1                                                                              
 INPUT CARD>C      6.0     0.85810  -0.44276  -0.00067                                      
 INPUT CARD>C      6.0    -0.35600   0.42523   0.16866                                      
 INPUT CARD>O      8.0    -0.25755   1.63262   0.31853                                      
 INPUT CARD>O      8.0    -1.50850  -0.14046  -0.18717                                      
 INPUT CARD>H      1.0     0.61890  -1.47933   0.27988                                      
 INPUT CARD>H      1.0     1.67187  -0.07424   0.64143                                      
 INPUT CARD>H      1.0     1.18612  -0.41831  -1.05041                                      
 INPUT CARD>H      1.0    -2.21294   0.49725  -0.17024                                      
 INPUT CARD> $END                                                                           
 INPUT CARD>                                                                                
 INPUT CARD>                                                                                
    1000000 WORDS OF MEMORY AVAILABLE

     BASIS OPTIONS
     -------------
     GBASIS=N31          IGAUSS=       6      POLAR=POPN31  
     NDFUNC=       1     NFFUNC=       0     DIFFSP=       F
     NPFUNC=       0      DIFFS=       F


     RUN TITLE
     ---------
                                                                                 

 THE POINT GROUP OF THE MOLECULE IS C1      
 THE ORDER OF THE PRINCIPAL AXIS IS     0

 THE MOMENTS OF INERTIA ARE (AMU-ANGSTROM**2)
 IXX=    43.735   IYY=    53.902   IZZ=    94.155

 ATOM      ATOMIC                      COORDINATES (BOHR)
           CHARGE         X                   Y                   Z
 C           6.0     2.7053199327       -0.5035233392       -0.0369292748
 C           6.0    -0.0524292442        0.1349565022        0.1726078078
 O           8.0    -0.8015834884        2.3056613919       -0.0453237253
 O           8.0    -1.6197467139       -1.8245575169       -0.0323765231
 H           1.0     3.0901462363       -2.3018662831        0.9327592584
 H           1.0     3.8441822774        0.9994956522        0.8383196291
 H           1.0     3.2304926573       -0.6805549741       -2.0405193720
 H           1.0    -3.3240795702       -1.2640777300       -0.1129016048

          INTERNUCLEAR DISTANCES (ANGS.)
          ------------------------------

                1 C          2 C          3 O          4 O          5 H     

   1 C       0.0000000    1.5020380 *  2.3777649 *  2.3931074 *  1.1001829 *
   2 C       1.5020380 *  0.0000000    1.2206326 *  1.3322449 *  2.1424632 *
   3 O       2.3777649 *  1.2206326 *  0.0000000    2.2280981 *  3.2332478  
   4 O       2.3931074 *  1.3322449 *  2.2280981 *  0.0000000    2.5566657 *
   5 H       1.1001829 *  2.1424632 *  3.2332478    2.5566657 *  0.0000000  
   6 H       1.1001459 *  2.1413170 *  2.5962082 *  3.2872050    1.7926913 *
   7 H       1.1000677 *  2.1391179 *  2.8573578 *  2.8431252 *  1.7936481 *
   8 H       3.2161560    1.8889855 *  2.3133334 *  0.9503664 *  3.4826419  

                6 H          7 H          8 H     

   1 C       1.1001459 *  1.1000677 *  3.2161560  
   2 C       2.1413170 *  2.1391179 *  1.8889855 *
   3 O       2.5962082 *  2.8573578 *  2.3133334 *
   4 O       3.2872050    2.8431252 *  0.9503664 *
   5 H       1.7926913 *  1.7936481 *  3.4826419  
   6 H       0.0000000    1.7935049 *  4.0096331  
   7 H       1.7935049 *  0.0000000    3.6285752  
   8 H       4.0096331    3.6285752    0.0000000  

  * ... LESS THAN  3.000


     ATOMIC BASIS SET
     ----------------
 THE CONTRACTED PRIMITIVE FUNCTIONS HAVE BEEN UNNORMALIZED
 THE CONTRACTED BASIS FUNCTIONS ARE NOW NORMALIZED TO UNITY

  SHELL TYPE  PRIMITIVE        EXPONENT          CONTRACTION COEFFICIENT(S)

 C         

      1   S       1          3047.5248800    0.001834737132
      1   S       2           457.3695180    0.014037322813
      1   S       3           103.9486850    0.068842622264
      1   S       4            29.2101553    0.232184443216
      1   S       5             9.2866630    0.467941348435
      1   S       6             3.1639270    0.362311985337

      2   L       7             7.8682723   -0.119332419775    0.068999066591
      2   L       8             1.8812885   -0.160854151696    0.316423960957
      2   L       9             0.5442493    1.143456437840    0.744308290898

      3   L      10             0.1687145    1.000000000000    1.000000000000

      4   D      11             0.8000000    1.000000000000

 C         

      5   S      12          3047.5248800    0.001834737132
      5   S      13           457.3695180    0.014037322813
      5   S      14           103.9486850    0.068842622264
      5   S      15            29.2101553    0.232184443216
      5   S      16             9.2866630    0.467941348435
      5   S      17             3.1639270    0.362311985337

      6   L      18             7.8682723   -0.119332419775    0.068999066591
      6   L      19             1.8812885   -0.160854151696    0.316423960957
      6   L      20             0.5442493    1.143456437840    0.744308290898

      7   L      21             0.1687145    1.000000000000    1.000000000000

      8   D      22             0.8000000    1.000000000000

 O         

      9   S      23          5484.6716600    0.001831074430
      9   S      24           825.2349460    0.013950172200
      9   S      25           188.0469580    0.068445078098
      9   S      26            52.9645000    0.232714335992
      9   S      27            16.8975704    0.470192897984
      9   S      28             5.7996353    0.358520852987

     10   L      29            15.5396162   -0.110777549525    0.070874268231
     10   L      30             3.5999336   -0.148026262701    0.339752839147
     10   L      31             1.0137618    1.130767015354    0.727158577316

     11   L      32             0.2700058    1.000000000000    1.000000000000

     12   D      33             0.8000000    1.000000000000

 O         

     13   S      34          5484.6716600    0.001831074430
     13   S      35           825.2349460    0.013950172200
     13   S      36           188.0469580    0.068445078098
     13   S      37            52.9645000    0.232714335992
     13   S      38            16.8975704    0.470192897984
     13   S      39             5.7996353    0.358520852987

     14   L      40            15.5396162   -0.110777549525    0.070874268231
     14   L      41             3.5999336   -0.148026262701    0.339752839147
     14   L      42             1.0137618    1.130767015354    0.727158577316

     15   L      43             0.2700058    1.000000000000    1.000000000000

     16   D      44             0.8000000    1.000000000000

 H         

     17   S      45            18.7311370    0.033494604338
     17   S      46             2.8253944    0.234726953484
     17   S      47             0.6401217    0.813757326146

     18   S      48             0.1612778    1.000000000000

 H         

     19   S      49            18.7311370    0.033494604338
     19   S      50             2.8253944    0.234726953484
     19   S      51             0.6401217    0.813757326146

     20   S      52             0.1612778    1.000000000000

 H         

     21   S      53            18.7311370    0.033494604338
     21   S      54             2.8253944    0.234726953484
     21   S      55             0.6401217    0.813757326146

     22   S      56             0.1612778    1.000000000000

 H         

     23   S      57            18.7311370    0.033494604338
     23   S      58             2.8253944    0.234726953484
     23   S      59             0.6401217    0.813757326146

     24   S      60             0.1612778    1.000000000000

 TOTAL NUMBER OF BASIS SET SHELLS             =   24
 NUMBER OF CARTESIAN GAUSSIAN BASIS FUNCTIONS =   68
 NUMBER OF ELECTRONS                          =   32
 CHARGE OF MOLECULE                           =    0
 SPIN MULTIPLICITY                            =    1
 NUMBER OF OCCUPIED ORBITALS (ALPHA)          =   16
 NUMBER OF OCCUPIED ORBITALS (BETA )          =   16
 TOTAL NUMBER OF ATOMS                        =    8
 THE NUCLEAR REPULSION ENERGY IS      121.2839842613

     $CONTRL OPTIONS
     ---------------
 SCFTYP=RHF          RUNTYP=ENERGY       EXETYP=RUN     
 MPLEVL=       0     CITYP =NONE         CCTYP =NONE         VBTYP =NONE    
 DFTTYP=NONE         TDDFT =NONE    
 MULT  =       1     ICHARG=       0     NZVAR =       0     COORD =CART    
 PP    =NONE         RELWFN=NONE         LOCAL =NONE         NUMGRD=       F
 ISPHER=      -1     NOSYM =       0     MAXIT =      30     UNITS =ANGS    
 PLTORB=       F     MOLPLT=       F     AIMPAC=       F     FRIEND=        
 NPRINT=       7     IREST =       0     GEOM  =INPUT   
 NORMF =       0     NORMP =       0     ITOL  =      20     ICUT  =       9
 INTTYP=BEST         GRDTYP=BEST         QMTTOL= 1.0E-06

     $SYSTEM OPTIONS
     ---------------
  REPLICATED MEMORY=     1000000 WORDS (ON EVERY NODE).
 DISTRIBUTED MEMDDI=           0 MILLION WORDS IN AGGREGATE,
 MEMDDI DISTRIBUTED OVER   1 PROCESSORS IS           0 WORDS/PROCESSOR.
 TOTAL MEMORY REQUESTED ON EACH PROCESSOR=     1000000 WORDS.
 TIMLIM=      525600.00 MINUTES, OR   365.00 DAYS.
 PARALL= F  BALTYP=  NXTVAL  KDIAG=    0  COREFL= F

          ----------------
          PROPERTIES INPUT
          ----------------

     MOMENTS            FIELD           POTENTIAL          DENSITY
 IEMOM =       1   IEFLD =       0   IEPOT =       0   IEDEN =       0
 WHERE =COMASS     WHERE =NUCLEI     WHERE =NUCLEI     WHERE =NUCLEI  
 OUTPUT=BOTH       OUTPUT=BOTH       OUTPUT=BOTH       OUTPUT=BOTH    
 IEMINT=       0   IEFINT=       0                     IEDINT=       0
                                                       MORB  =       0
          EXTRAPOLATION IN EFFECT
          SOSCF IN EFFECT
 ORBITAL PRINTING OPTION: NPREO=   1  68   2   1

     -------------------------------
     INTEGRAL TRANSFORMATION OPTIONS
     -------------------------------
     NWORD  =         0     CUTOFF = 1.0E-09
     MPTRAN =         0     DIRTRF =       F
     AOINTS =DUP     

          ----------------------
          INTEGRAL INPUT OPTIONS
          ----------------------
 NOPK  =       1 NORDER=       0 SCHWRZ=       T

     ------------------------------------------
     THE POINT GROUP IS C1 , NAXIS= 0, ORDER= 1
     ------------------------------------------

     DIMENSIONS OF THE SYMMETRY SUBSPACES ARE
 A   =   68

 ..... DONE SETTING UP THE RUN .....
 STEP CPU TIME =     0.00 TOTAL CPU TIME =        0.0 (    0.0 MIN)
 TOTAL WALL CLOCK TIME=        0.0 SECONDS, CPU UTILIZATION IS   0.00%

          ********************
          1 ELECTRON INTEGRALS
          ********************
 ...... END OF ONE-ELECTRON INTEGRALS ......
 STEP CPU TIME =     0.01 TOTAL CPU TIME =        0.0 (    0.0 MIN)
 TOTAL WALL CLOCK TIME=        0.0 SECONDS, CPU UTILIZATION IS  50.00%

          -------------
          GUESS OPTIONS
          -------------
          GUESS =HUCKEL            NORB  =       0          NORDER=       0
          MIX   =       F          PRTMO =       F          PUNMO =       F
          TOLZ  = 1.0E-08          TOLE  = 1.0E-05
          SYMDEN=       F          PURIFY=       F

 INITIAL GUESS ORBITALS GENERATED BY HUCKEL   ROUTINE.
 HUCKEL GUESS REQUIRES     41896 WORDS.

 SYMMETRIES FOR INITIAL GUESS ORBITALS FOLLOW.   BOTH SET(S).
    16 ORBITALS ARE OCCUPIED (    4 CORE ORBITALS).
     5=A        6=A        7=A        8=A        9=A       10=A       11=A   
    12=A       13=A       14=A       15=A       16=A       17=A       18=A   
    19=A       20=A       21=A       22=A       23=A       24=A       25=A   
    26=A   
 ...... END OF INITIAL ORBITAL SELECTION ......
 STEP CPU TIME =     0.03 TOTAL CPU TIME =        0.0 (    0.0 MIN)
 TOTAL WALL CLOCK TIME=        0.0 SECONDS, CPU UTILIZATION IS 100.00%

                    ----------------------
                    AO INTEGRAL TECHNOLOGY
                    ----------------------
     S,P,L SHELL ROTATED AXIS INTEGRALS, REPROGRAMMED BY
        KAZUYA ISHIMURA (IMS) AND JOSE SIERRA (SYNSTAR).
     S,P,D,L SHELL ROTATED AXIS INTEGRALS PROGRAMMED BY
        KAZUYA ISHIMURA (INSTITUTE FOR MOLECULAR SCIENCE).
     S,P,D,F,G SHELL TO TOTAL QUARTET ANGULAR MOMENTUM SUM 5,
        ERIC PROGRAM BY GRAHAM FLETCHER (ELORET AND NASA ADVANCED
        SUPERCOMPUTING DIVISION, AMES RESEARCH CENTER).
     S,P,D,F,G,L SHELL GENERAL RYS QUADRATURE PROGRAMMED BY
        MICHEL DUPUIS (PACIFIC NORTHWEST NATIONAL LABORATORY).

          --------------------
          2 ELECTRON INTEGRALS
          --------------------

 THE -PK- OPTION IS OFF, THE INTEGRALS ARE NOT IN SUPERMATRIX FORM.
 STORING   15000 INTEGRALS/RECORD ON DISK, USING 12 BYTES/INTEGRAL.
 TWO ELECTRON INTEGRAL EVALUATION REQUIRES   90696 WORDS OF MEMORY.
 SCHWARZ INEQUALITY OVERHEAD:      2343 INTEGRALS, T=        0.01
 II,JST,KST,LST =  1  1  1  1 NREC =         1 INTLOC =    1
 II,JST,KST,LST =  2  1  1  1 NREC =         1 INTLOC =    2
 II,JST,KST,LST =  3  1  1  1 NREC =         1 INTLOC =   34
 II,JST,KST,LST =  4  1  1  1 NREC =         1 INTLOC =  214
 II,JST,KST,LST =  5  1  1  1 NREC =         1 INTLOC = 1189
 II,JST,KST,LST =  6  1  1  1 NREC =         1 INTLOC = 3229
 II,JST,KST,LST =  7  1  1  1 NREC =         2 INTLOC =  979
 II,JST,KST,LST =  8  1  1  1 NREC =         3 INTLOC = 8234
 II,JST,KST,LST =  9  1  1  1 NREC =         7 INTLOC = 6165
 II,JST,KST,LST = 10  1  1  1 NREC =         8 INTLOC = 4013
 II,JST,KST,LST = 11  1  1  1 NREC =        13 INTLOC = 2352
 II,JST,KST,LST = 12  1  1  1 NREC =        20 INTLOC = 1487
 II,JST,KST,LST = 13  1  1  1 NREC =        34 INTLOC =14401
 II,JST,KST,LST = 14  1  1  1 NREC =        37 INTLOC = 5503
 II,JST,KST,LST = 15  1  1  1 NREC =        51 INTLOC = 8997
 II,JST,KST,LST = 16  1  1  1 NREC =        70 INTLOC = 7262
 II,JST,KST,LST = 17  1  1  1 NREC =       106 INTLOC =10167
 II,JST,KST,LST = 18  1  1  1 NREC =       113 INTLOC =10112
 II,JST,KST,LST = 19  1  1  1 NREC =       121 INTLOC = 7459
 II,JST,KST,LST = 20  1  1  1 NREC =       129 INTLOC = 2339
 II,JST,KST,LST = 21  1  1  1 NREC =       137 INTLOC =11327
 II,JST,KST,LST = 22  1  1  1 NREC =       146 INTLOC = 5158
 II,JST,KST,LST = 23  1  1  1 NREC =       155 INTLOC =11891
 II,JST,KST,LST = 24  1  1  1 NREC =       164 INTLOC =12788
 SCHWARZ INEQUALITY TEST SKIPPED      2954 INTEGRAL BLOCKS.
 TOTAL NUMBER OF NONZERO TWO-ELECTRON INTEGRALS =             2612190
        175 INTEGRAL RECORDS WERE STORED ON DISK FILE  8.
  ...... END OF TWO-ELECTRON INTEGRALS .....
 STEP CPU TIME =     0.58 TOTAL CPU TIME =        0.6 (    0.0 MIN)
 TOTAL WALL CLOCK TIME=        0.8 SECONDS, CPU UTILIZATION IS  76.54%

          --------------------------
                 RHF SCF CALCULATION
          --------------------------

     NUCLEAR ENERGY =       121.2839842613
     MAXIT =   30     NPUNCH=    2
     EXTRAP=T  DAMP=F  SHIFT=F  RSTRCT=F  DIIS=F  DEM=F  SOSCF=T
     DENSITY MATRIX CONV=  1.00E-05
     SOSCF WILL OPTIMIZE     832 ORBITAL ROTATIONS, SOGTOL=   0.250
     MEMORY REQUIRED FOR RHF ITERS=     66648 WORDS.

 ITER EX DEM     TOTAL ENERGY        E CHANGE  DENSITY CHANGE     ORB. GRAD
   1  0  0     -227.0595022316  -227.0595022316   0.303891334   0.000000000
          ---------------START SECOND ORDER SCF---------------
   2  1  0     -227.6814903324    -0.6219881007   0.230942484   0.115378813
   3  2  0     -227.7141985953    -0.0327082629   0.114010439   0.093349219
   4  3  0     -227.8008585362    -0.0866599409   0.021883539   0.009850051
   5  4  0     -227.8024378793    -0.0015793431   0.005434364   0.003705684
   6  5  0     -227.8025438351    -0.0001059558   0.002386849   0.000617847
   7  6  0     -227.8025540739    -0.0000102388   0.000812708   0.000379278
   8  7  0     -227.8025550887    -0.0000010148   0.000154857   0.000077739
   9  8  0     -227.8025551998    -0.0000001112   0.000043255   0.000020699
  10  9  0     -227.8025552088    -0.0000000089   0.000018088   0.000005687
  11 10  0     -227.8025552098    -0.0000000011   0.000004275   0.000002035
  12 11  0     -227.8025552099    -0.0000000001   0.000001551   0.000000620

          -----------------
          DENSITY CONVERGED
          -----------------
     TIME TO FORM FOCK OPERATORS=       1.1 SECONDS (       0.1 SEC/ITER)
     TIME TO SOLVE SCF EQUATIONS=       0.0 SECONDS (       0.0 SEC/ITER)

 FINAL RHF ENERGY IS     -227.8025552099 AFTER  12 ITERATIONS

          ------------
          EIGENVECTORS
          ------------

                      1          2          3          4          5
                  -20.6213   -20.5486   -11.3915   -11.2493    -1.4702
                     A          A          A          A          A   
    1  C  1  S    0.000001   0.000002   0.002130   0.995712  -0.014707
    2  C  1  S    0.000036   0.000025  -0.000023   0.028632   0.028431
    3  C  1  X   -0.000019   0.000009   0.000093  -0.000363  -0.024287
    4  C  1  Y   -0.000004  -0.000025  -0.000007   0.000037   0.003399
    5  C  1  Z   -0.000017  -0.000002  -0.000036  -0.000023   0.000957
    6  C  1  S    0.000311  -0.000185   0.004565  -0.015339   0.003419
    7  C  1  X    0.000020   0.000160  -0.002398   0.001062   0.000664
    8  C  1  Y    0.000054  -0.000036   0.000378  -0.000252  -0.002872
    9  C  1  Z    0.000132   0.000015   0.000354  -0.000058  -0.001731
   10  C  1 XX   -0.000051   0.000001  -0.000456  -0.001857   0.007428
   11  C  1 YY   -0.000001  -0.000029  -0.000181  -0.001887  -0.000420
   12  C  1 ZZ   -0.000005  -0.000013  -0.000148  -0.001868   0.000095
   13  C  1 XY   -0.000024   0.000056   0.000068   0.000004  -0.001384
   14  C  1 XZ   -0.000001  -0.000008   0.000026   0.000012  -0.000466
   15  C  1 YZ    0.000010  -0.000007  -0.000016  -0.000002  -0.000079
   16  C  2  S    0.000003  -0.000002   0.995867  -0.002493  -0.108853
   17  C  2  S    0.000420   0.000477   0.025998   0.000027   0.210526
   18  C  2  X   -0.000178   0.000021  -0.000894   0.000060  -0.090068
   19  C  2  Y   -0.000239  -0.000042  -0.000571  -0.000031  -0.011755
   20  C  2  Z   -0.000021   0.000016  -0.000091   0.000041  -0.015641
   21  C  2  S   -0.000167  -0.000308  -0.006508   0.003206   0.046719
   22  C  2  X   -0.000278   0.000358  -0.004262   0.002449   0.020646
   23  C  2  Y    0.000522  -0.000379   0.001612  -0.000324  -0.000108
   24  C  2  Z   -0.000032   0.000020   0.000064  -0.000026   0.003466
   25  C  2 XX   -0.000068  -0.000113  -0.001218  -0.000622  -0.000541
   26  C  2 YY   -0.000075  -0.000720  -0.000603  -0.000340   0.018958
   27  C  2 ZZ   -0.000050  -0.000036  -0.002332  -0.000154  -0.017509
   28  C  2 XY   -0.000079   0.000246   0.000054   0.000073   0.010608
   29  C  2 XZ   -0.000004  -0.000031   0.000116   0.000026   0.002365
   30  C  2 YZ   -0.000015   0.000078  -0.000015  -0.000014   0.000059
   31  O  3  S   -0.000250   0.994691  -0.000300  -0.000038  -0.087611
   32  O  3  S    0.000047   0.021010   0.000536  -0.000242   0.194149
   33  O  3  X    0.000024   0.000458   0.000058  -0.000043   0.014600
   34  O  3  Y    0.000044  -0.001474  -0.000326   0.000010  -0.074495
   35  O  3  Z    0.000003   0.000181   0.000033   0.000011   0.004544
   36  O  3  S   -0.000455   0.004426  -0.002474   0.000831   0.165372
   37  O  3  X    0.000009  -0.000035   0.000272  -0.000071   0.000175
   38  O  3  Y    0.000115   0.000035   0.001598  -0.000411  -0.030144
   39  O  3  Z   -0.000015  -0.000011  -0.000284  -0.000013   0.001091
   40  O  3 XX    0.000059  -0.003869   0.000177  -0.000081  -0.001301
   41  O  3 YY   -0.000031  -0.003633   0.000000   0.000014   0.011091
   42  O  3 ZZ    0.000007  -0.004125   0.000292  -0.000236  -0.000114
   43  O  3 XY   -0.000039  -0.000107  -0.000134  -0.000038  -0.002510
   44  O  3 XZ    0.000010   0.000024   0.000000  -0.000033  -0.000166
   45  O  3 YZ   -0.000003  -0.000034   0.000089  -0.000032  -0.000976
   46  O  4  S    0.994593   0.000254  -0.000114  -0.000038  -0.172083
   47  O  4  S    0.021249  -0.000055   0.000638  -0.000269   0.389000
   48  O  4  X   -0.000337   0.000004  -0.000005  -0.000094   0.001178
   49  O  4  Y    0.001218  -0.000047   0.000160  -0.000023   0.092583
   50  O  4  Z    0.000077   0.000000   0.000019   0.000006   0.003586
   51  O  4  S    0.004347   0.000215  -0.001814   0.000846   0.352655
   52  O  4  X    0.000330   0.000021  -0.000232   0.000383  -0.001692
   53  O  4  Y   -0.000501   0.000092  -0.001845   0.000367   0.048959
   54  O  4  Z   -0.000010   0.000016  -0.000196  -0.000003   0.002145
   55  O  4 XX   -0.004214   0.000052  -0.000132  -0.000031   0.019500
   56  O  4 YY   -0.004128  -0.000099  -0.000388  -0.000047   0.014331
   57  O  4 ZZ   -0.004043  -0.000074   0.000482  -0.000228  -0.000403
   58  O  4 XY   -0.000008   0.000032  -0.000465   0.000073   0.001514
   59  O  4 XZ   -0.000018   0.000022  -0.000079  -0.000021   0.001477
   60  O  4 YZ   -0.000016   0.000011  -0.000125   0.000032   0.001189
   61  H  5  S    0.000027   0.000011  -0.000191   0.000164   0.005581
   62  H  5  S   -0.000104  -0.000061   0.000149   0.002482  -0.000040
   63  H  6  S   -0.000015   0.000015  -0.000152   0.000170   0.004948
   64  H  6  S   -0.000125  -0.000052   0.000201   0.002451  -0.000113
   65  H  7  S    0.000014   0.000018  -0.000175   0.000129   0.004819
   66  H  7  S    0.000031  -0.000016   0.000338   0.002556   0.000692
   67  H  8  S    0.000416  -0.000033   0.000327   0.000018   0.095332
   68  H  8  S   -0.000270  -0.000013   0.000019   0.000261  -0.005802

                      6          7          8          9         10
                   -1.3517    -1.0232    -0.8384    -0.6985    -0.6774
                     A          A          A          A          A   
    1  C  1  S   -0.009084  -0.172802   0.076505  -0.003699  -0.033771
    2  C  1  S    0.017836   0.324038  -0.137243   0.004816   0.056581
    3  C  1  X   -0.010736  -0.052321  -0.116037   0.034967   0.222901
    4  C  1  Y    0.013084   0.004391  -0.011520  -0.090359  -0.122179
    5  C  1  Z    0.000323   0.002580   0.007819   0.001672  -0.034681
    6  C  1  S    0.002228   0.310537  -0.192002   0.009831   0.136834
    7  C  1  X    0.004926  -0.004494  -0.028058  -0.002038   0.080348
    8  C  1  Y    0.009347  -0.003066  -0.009940  -0.043393  -0.058469
    9  C  1  Z   -0.000468   0.004974   0.004154  -0.005618  -0.009744
   10  C  1 XX    0.002718   0.010225   0.010565  -0.005640  -0.016993
   11  C  1 YY    0.000772   0.006133  -0.009143   0.003702   0.010053
   12  C  1 ZZ    0.000067   0.008043  -0.008992   0.002002   0.013927
   13  C  1 XY   -0.003224   0.000063  -0.003970   0.002312   0.007166
   14  C  1 XZ   -0.000012  -0.000688  -0.002281  -0.000369   0.002169
   15  C  1 YZ    0.000818  -0.000167  -0.001600  -0.004863  -0.004798
   16  C  2  S   -0.060172  -0.074105  -0.093689   0.077252   0.036695
   17  C  2  S    0.118542   0.161064   0.206837  -0.185085  -0.083517
   18  C  2  X   -0.003338   0.168564  -0.093962   0.047785  -0.303150
   19  C  2  Y    0.219875  -0.094627  -0.160335  -0.177495  -0.110782
   20  C  2  Z   -0.010161  -0.004134  -0.007163   0.010292  -0.011201
   21  C  2  S    0.034198   0.098365   0.133190  -0.113920  -0.111000
   22  C  2  X    0.008455   0.033292   0.016725  -0.005817  -0.118472
   23  C  2  Y   -0.020285  -0.015586  -0.012131  -0.015777   0.021395
   24  C  2  Z    0.001400  -0.001736   0.001353   0.001197  -0.005237
   25  C  2 XX   -0.013711   0.015737  -0.007382  -0.009343   0.007953
   26  C  2 YY    0.016004  -0.004882   0.014467   0.010769  -0.003725
   27  C  2 ZZ   -0.008726  -0.005560  -0.010840   0.006746  -0.000212
   28  C  2 XY   -0.029746  -0.003158   0.014731   0.006110   0.007609
   29  C  2 XZ    0.000056  -0.002134   0.001083  -0.001123   0.003361
   30  C  2 YZ   -0.005755   0.001402   0.002347   0.001877   0.001402
   31  O  3  S   -0.176867   0.045855   0.034495  -0.089641  -0.018635
   32  O  3  S    0.386476  -0.101256  -0.075463   0.203059   0.046253
   33  O  3  X    0.044529   0.040238  -0.016175  -0.096939  -0.268002
   34  O  3  Y   -0.102380  -0.003641  -0.076522   0.341542   0.002842
   35  O  3  Z    0.009815  -0.002367   0.002916  -0.028454  -0.019548
   36  O  3  S    0.372569  -0.122268  -0.115021   0.343101   0.052758
   37  O  3  X    0.017829   0.015656  -0.014064  -0.047764  -0.164117
   38  O  3  Y   -0.043583  -0.001559  -0.041090   0.188371   0.002933
   39  O  3  Z    0.004726  -0.000240   0.000803  -0.016474  -0.013694
   40  O  3 XX   -0.000157   0.001461  -0.004107   0.003664  -0.006923
   41  O  3 YY    0.011807  -0.001318   0.008189  -0.022666   0.004865
   42  O  3 ZZ   -0.003079   0.001195   0.000819   0.004687   0.001725
   43  O  3 XY   -0.006745  -0.003205   0.001901   0.011000   0.017454
   44  O  3 XZ    0.000839   0.000035  -0.000876  -0.001077  -0.002164
   45  O  3 YZ   -0.001855   0.000638  -0.000184   0.003698   0.001106
   46  O  4  S    0.113607   0.025490   0.024937  -0.047357   0.033179
   47  O  4  S   -0.255953  -0.057994  -0.063256   0.111709  -0.077955
   48  O  4  X    0.018724   0.123910   0.391360   0.231242   0.028564
   49  O  4  Y   -0.023175   0.007497   0.148907  -0.248083   0.313759
   50  O  4  Z   -0.001771   0.004826   0.033825   0.011968   0.013807
   51  O  4  S   -0.257067  -0.075786  -0.064431   0.173537  -0.127546
   52  O  4  X    0.008590   0.058716   0.226334   0.154060   0.024131
   53  O  4  Y   -0.010074   0.002842   0.087130  -0.171511   0.202083
   54  O  4  Z   -0.001899   0.002982   0.020223   0.007378   0.009633
   55  O  4 XX   -0.013803  -0.005581  -0.025204  -0.003208  -0.010838
   56  O  4 YY   -0.000248   0.000590   0.013026  -0.015518   0.021024
   57  O  4 ZZ    0.000311   0.000710  -0.001577   0.008154  -0.006062
   58  O  4 XY    0.003900   0.010354   0.029010   0.015360  -0.001151
   59  O  4 XZ   -0.001125   0.000121   0.000255   0.000235   0.000145
   60  O  4 YZ   -0.000132   0.000538   0.003384  -0.000244   0.001957
   61  H  5  S    0.001469   0.107015  -0.061068   0.053152   0.105658
   62  H  5  S   -0.001171   0.016858  -0.026113   0.044431   0.057495
   63  H  6  S    0.005787   0.102115  -0.090245  -0.020961   0.042045
   64  H  6  S   -0.000657   0.015791  -0.040347   0.000429   0.020069
   65  H  7  S    0.003491   0.107010  -0.075772   0.010740   0.089329
   66  H  7  S    0.000248   0.022905  -0.027543   0.008629   0.053527
   67  H  8  S   -0.068511  -0.068739  -0.189234  -0.123512   0.010134
   68  H  8  S    0.005580  -0.011362  -0.056795  -0.037801   0.002256

                     11         12         13         14         15
                   -0.6489    -0.5710    -0.5696    -0.5635    -0.4684
                     A          A          A          A          A   
    1  C  1  S   -0.002207   0.002275  -0.003112   0.000899  -0.000003
    2  C  1  S    0.002702  -0.004844   0.007373  -0.003498   0.000060
    3  C  1  X    0.027371   0.250627  -0.079341   0.108292  -0.007864
    4  C  1  Y   -0.007061   0.291824   0.273764   0.023155   0.001634
    5  C  1  Z    0.229088  -0.102338   0.068011   0.342802  -0.086692
    6  C  1  S    0.019855  -0.015944   0.029212  -0.006281   0.009924
    7  C  1  X    0.009684   0.129808  -0.041749   0.059379  -0.020474
    8  C  1  Y    0.001766   0.166900   0.144662   0.008634  -0.043218
    9  C  1  Z    0.116284  -0.063238   0.046406   0.203024  -0.060518
   10  C  1 XX    0.000699  -0.006555   0.015576  -0.000869  -0.000775
   11  C  1 YY    0.012556  -0.001576  -0.007676   0.022705  -0.006348
   12  C  1 ZZ   -0.012819   0.011575  -0.010318  -0.020568   0.007151
   13  C  1 XY    0.003170   0.018202   0.010827   0.008270   0.000111
   14  C  1 XZ    0.000390   0.003831   0.003709   0.014473  -0.007410
   15  C  1 YZ   -0.001997   0.022123   0.014891  -0.002078   0.004404
   16  C  2  S   -0.007923   0.019493  -0.000948   0.007940  -0.004385
   17  C  2  S    0.017887  -0.044229  -0.000516  -0.016344   0.011101
   18  C  2  X   -0.015757  -0.162637   0.126413  -0.061213  -0.001225
   19  C  2  Y   -0.000351   0.093364  -0.230841   0.058858   0.000422
   20  C  2  Z    0.258490   0.013733  -0.008406  -0.069308   0.181301
   21  C  2  S    0.009593  -0.063848   0.025912  -0.043174   0.020731
   22  C  2  X   -0.015207  -0.046614   0.022527  -0.008213  -0.000975
   23  C  2  Y    0.000828   0.004156   0.002960   0.007961   0.060184
   24  C  2  Z    0.119346   0.013656  -0.011655  -0.052761   0.122326
   25  C  2 XX    0.003114  -0.014748   0.023065  -0.006754   0.000242
   26  C  2 YY    0.002833   0.013881  -0.017889   0.004743   0.002339
   27  C  2 ZZ   -0.005966  -0.001738   0.002459  -0.000006  -0.002063
   28  C  2 XY    0.000383   0.014114   0.025756  -0.002670  -0.003096
   29  C  2 XZ   -0.009587  -0.004581   0.003312   0.021407  -0.003864
   30  C  2 YZ   -0.002326  -0.000494   0.003413   0.006076   0.046564
   31  O  3  S   -0.000008   0.011835  -0.026769   0.006652   0.002341
   32  O  3  S   -0.002358  -0.024847   0.064458  -0.017357   0.001101
   33  O  3  X   -0.016291   0.027920  -0.030090  -0.003410  -0.023783
   34  O  3  Y    0.019755  -0.113172   0.328371  -0.094889   0.063825
   35  O  3  Z    0.208786   0.033456  -0.052019  -0.051637   0.476609
   36  O  3  S    0.006359  -0.055236   0.113023  -0.025952  -0.044774
   37  O  3  X   -0.006842   0.020973  -0.020402  -0.002134  -0.026363
   38  O  3  Y    0.010485  -0.068025   0.209043  -0.063326   0.055292
   39  O  3  Z    0.134739   0.022597  -0.034464  -0.032672   0.364586
   40  O  3 XX   -0.001527  -0.002331   0.007976  -0.003094   0.001395
   41  O  3 YY   -0.003555   0.010201  -0.020133   0.006547  -0.003704
   42  O  3 ZZ    0.002721  -0.000346   0.005041  -0.003199   0.008785
   43  O  3 XY    0.001726  -0.000459   0.005282  -0.000823   0.003258
   44  O  3 XZ    0.005895   0.000404  -0.000978  -0.000725   0.010992
   45  O  3 YZ   -0.019306  -0.003177   0.005188   0.004297  -0.032693
   46  O  4  S    0.002742  -0.035717   0.024767  -0.013620  -0.001165
   47  O  4  S   -0.008466   0.080396  -0.057216   0.028255  -0.001660
   48  O  4  X   -0.032481   0.183346  -0.066881   0.083091   0.021985
   49  O  4  Y   -0.005190  -0.139725   0.289800  -0.053486   0.028866
   50  O  4  Z    0.376867   0.091788  -0.040415  -0.337895  -0.338881
   51  O  4  S   -0.007200   0.158963  -0.104197   0.070041   0.032614
   52  O  4  X   -0.018692   0.127428  -0.039669   0.064790   0.030931
   53  O  4  Y   -0.003110  -0.105012   0.208355  -0.036207   0.027058
   54  O  4  Z    0.266113   0.066383  -0.029449  -0.256526  -0.290405
   55  O  4 XX   -0.000975  -0.012918   0.003002  -0.004976  -0.001313
   56  O  4 YY   -0.001782  -0.005066   0.011372  -0.001801  -0.000238
   57  O  4 ZZ    0.001375   0.004501  -0.006259  -0.001361  -0.002483
   58  O  4 XY   -0.001750   0.012170  -0.006197   0.005461   0.000782
   59  O  4 XZ    0.000895  -0.001112   0.000795   0.002381   0.004224
   60  O  4 YZ    0.023362   0.004854  -0.001659  -0.018282  -0.012419
   61  H  5  S    0.072553  -0.163690  -0.148112   0.106118  -0.036515
   62  H  5  S    0.051265  -0.113509  -0.129757   0.080034  -0.061123
   63  H  6  S    0.064160   0.198755   0.123470   0.144350  -0.027615
   64  H  6  S    0.039354   0.152463   0.094503   0.109746   0.002752
   65  H  7  S   -0.126135   0.089398  -0.069944  -0.205415   0.064116
   66  H  7  S   -0.086916   0.069585  -0.052688  -0.150400   0.058874
   67  H  8  S    0.004814  -0.109676   0.070903  -0.038425   0.002668
   68  H  8  S    0.002809  -0.066369   0.036215  -0.020722   0.002104

                     16         17         18         19         20
                   -0.4446     0.1715     0.2242     0.2590     0.2996
                     A          A          A          A          A   
    1  C  1  S    0.020367   0.033372   0.072181  -0.116377  -0.009561
    2  C  1  S   -0.042871  -0.040259  -0.064116   0.077054   0.004648
    3  C  1  X    0.172746   0.060724  -0.002127   0.162141   0.081249
    4  C  1  Y   -0.120018  -0.009896  -0.016071  -0.072881   0.306258
    5  C  1  Z   -0.008257   0.040460  -0.022909  -0.030776  -0.045666
    6  C  1  S   -0.117885  -0.467496  -1.167998   2.114096   0.209667
    7  C  1  X    0.104990   0.128287  -0.119044   0.562004   0.326454
    8  C  1  Y   -0.066868   0.033101  -0.142665  -0.304409   1.447515
    9  C  1  Z   -0.025807   0.344233  -0.139286  -0.170306  -0.201431
   10  C  1 XX   -0.011978  -0.006103   0.005731  -0.002419  -0.005300
   11  C  1 YY    0.009858  -0.008374   0.004244  -0.011038   0.004409
   12  C  1 ZZ    0.004075   0.015089   0.000090  -0.011533  -0.001144
   13  C  1 XY   -0.001460  -0.000940   0.011610   0.004312  -0.012793
   14  C  1 XZ    0.001345  -0.033009   0.007218  -0.005301  -0.003134
   15  C  1 YZ   -0.006056   0.007247   0.000897   0.003262  -0.012326
   16  C  2  S    0.016325  -0.030056  -0.015436   0.000412   0.002869
   17  C  2  S   -0.036232   0.007039  -0.006384   0.063474  -0.011586
   18  C  2  X   -0.117647  -0.014538  -0.021861  -0.010114   0.020842
   19  C  2  Y    0.021860  -0.012765  -0.063954  -0.036331   0.047671
   20  C  2  Z   -0.012440   0.453414  -0.072672   0.062867   0.012657
   21  C  2  S   -0.096722   0.482131   0.333114  -0.280988  -0.040989
   22  C  2  X    0.037453   0.025836   0.090276   0.122722  -0.099838
   23  C  2  Y    0.062147  -0.065470   0.013596  -0.043295  -0.182075
   24  C  2  Z   -0.000192   0.548388  -0.080037   0.132885   0.060639
   25  C  2 XX   -0.028178  -0.009470  -0.015340  -0.002531   0.009557
   26  C  2 YY    0.029110  -0.007133   0.011025   0.006326  -0.008951
   27  C  2 ZZ   -0.003157   0.007482   0.002363   0.001649  -0.000005
   28  C  2 XY    0.043969   0.002104  -0.009023  -0.006261   0.025806
   29  C  2 XZ   -0.000498   0.018397  -0.004197  -0.000617  -0.002901
   30  C  2 YZ    0.000212  -0.018585   0.001793  -0.002134  -0.001637
   31  O  3  S   -0.001845   0.006880   0.012872  -0.010384   0.007866
   32  O  3  S    0.008130  -0.013240  -0.024093   0.010043  -0.043049
   33  O  3  X    0.547862   0.022890   0.059848   0.076776  -0.033313
   34  O  3  Y    0.158489   0.008376   0.004778  -0.005331   0.038005
   35  O  3  Z    0.012884  -0.311113   0.043810  -0.041462   0.016601
   36  O  3  S   -0.002489  -0.064874  -0.144826   0.184606   0.062140
   37  O  3  X    0.416808   0.019068   0.034707   0.073722  -0.021215
   38  O  3  Y    0.121789   0.031310   0.071823  -0.082205   0.022029
   39  O  3  Z    0.006710  -0.420913   0.052785  -0.052883   0.000513
   40  O  3 XX    0.012084  -0.000515   0.005272  -0.003700  -0.001488
   41  O  3 YY   -0.009662  -0.004163  -0.009466   0.001521  -0.009825
   42  O  3 ZZ    0.000683   0.005279   0.004785  -0.006077  -0.007745
   43  O  3 XY   -0.020967   0.001372   0.004913  -0.002657  -0.004261
   44  O  3 XZ    0.002459   0.003040  -0.000843   0.000696  -0.003648
   45  O  3 YZ    0.000623  -0.002597   0.002965  -0.001861  -0.001591
   46  O  4  S   -0.012873   0.014565   0.078809   0.025061   0.004636
   47  O  4  S    0.015555  -0.014119  -0.089474  -0.015895   0.033490
   48  O  4  X    0.056714   0.010182   0.177706   0.123006   0.090675
   49  O  4  Y    0.209200  -0.030893  -0.070861  -0.043801   0.021312
   50  O  4  Z    0.007273  -0.192137   0.034440  -0.021579  -0.032732
   51  O  4  S    0.140112  -0.205950  -1.017189  -0.340518  -0.250178
   52  O  4  X    0.045757  -0.000480   0.463300   0.285263   0.142114
   53  O  4  Y    0.180497  -0.071854  -0.200509  -0.019828  -0.034412
   54  O  4  Z    0.008653  -0.260615   0.053899  -0.020888  -0.026477
   55  O  4 XX   -0.012628   0.001157   0.031022   0.016637   0.000525
   56  O  4 YY    0.007071   0.002489   0.024587   0.017979   0.015763
   57  O  4 ZZ   -0.007381   0.013199   0.037661   0.014930   0.017754
   58  O  4 XY    0.000356  -0.000562   0.011476   0.013959  -0.001690
   59  O  4 XZ   -0.000423   0.020228  -0.003489   0.002941   0.004498
   60  O  4 YZ    0.000873   0.006872  -0.001469   0.003393  -0.002500
   61  H  5  S    0.081865  -0.054083  -0.013072  -0.027892   0.065623
   62  H  5  S    0.098939  -0.124989   0.409387  -1.216921   1.598687
   63  H  6  S   -0.014639  -0.050923   0.041193   0.005100  -0.064113
   64  H  6  S    0.016670  -0.186683   0.753525  -0.829811  -1.570365
   65  H  7  S    0.022787   0.105790  -0.025725  -0.003370  -0.004122
   66  H  7  S    0.024991   0.760255   0.280779  -1.184544  -0.269416
   67  H  8  S   -0.006111   0.002591   0.095704   0.030543  -0.006234
   68  H  8  S   -0.057797   0.116503   1.439130   0.735469   0.292055

                     21         22         23         24         25
                    0.3273     0.3998     0.4799     0.5184     0.7347
                     A          A          A          A          A   
    1  C  1  S   -0.006772   0.086898   0.021665   0.015695   0.001151
    2  C  1  S    0.016719   0.016325   0.051513   0.007494  -0.031881
    3  C  1  X    0.045727   0.119691  -0.148224  -0.072857   0.069951
    4  C  1  Y    0.028570  -0.015222   0.074577  -0.034345  -0.022266
    5  C  1  Z    0.338693  -0.032891  -0.001927  -0.004331  -0.441699
    6  C  1  S    0.053220  -2.018501  -1.174420  -0.404912  -0.053171
    7  C  1  X    0.234966   2.067443   0.560208   0.180643   0.034966
    8  C  1  Y    0.098607  -0.337073   0.265037  -1.091934   0.008268
    9  C  1  Z    1.484198  -0.177978  -0.143318  -0.058155   0.841396
   10  C  1 XX   -0.000221   0.038061   0.017506  -0.003294  -0.013498
   11  C  1 YY   -0.006234  -0.016970   0.002063   0.016363  -0.061903
   12  C  1 ZZ    0.006231  -0.011206  -0.000748  -0.006984   0.065800
   13  C  1 XY   -0.002352  -0.012180   0.011875  -0.048324  -0.014711
   14  C  1 XZ    0.010300   0.001901  -0.018210  -0.010709  -0.007254
   15  C  1 YZ   -0.002986  -0.001285   0.006845   0.001827   0.007249
   16  C  2  S    0.006791  -0.127707   0.067755   0.041538  -0.001203
   17  C  2  S   -0.023385   0.158625   0.127242  -0.005023  -0.159612
   18  C  2  X    0.008162   0.262581   0.199210   0.301199  -0.003307
   19  C  2  Y    0.005207  -0.133289  -0.061546   0.237670   0.013916
   20  C  2  Z   -0.182238  -0.074303   0.075506   0.036317  -0.801660
   21  C  2  S    0.031619   2.836091  -2.266670  -0.255546   0.329295
   22  C  2  X    0.060516   1.388842   1.817501   1.172611   0.098864
   23  C  2  Y   -0.001465  -0.579461  -1.577848   2.643905  -0.058020
   24  C  2  Z   -0.582776  -0.270730   0.272574   0.057107   0.678319
   25  C  2 XX   -0.001981   0.009023   0.020464   0.011761  -0.036909
   26  C  2 YY    0.001878   0.001931   0.005855   0.019014  -0.015535
   27  C  2 ZZ   -0.002120   0.011474  -0.019715  -0.017441   0.002132
   28  C  2 XY    0.002799  -0.005274   0.000371   0.003260   0.009243
   29  C  2 XZ    0.008568  -0.005492   0.005977   0.006401   0.023346
   30  C  2 YZ    0.002983   0.002636  -0.000372  -0.000888   0.003184
   31  O  3  S   -0.002115   0.009553  -0.112929   0.049219   0.002346
   32  O  3  S    0.022494  -0.020022   0.070438   0.001532   0.025696
   33  O  3  X    0.023247  -0.066360  -0.021401  -0.135508   0.010934
   34  O  3  Y    0.009070   0.072516  -0.149816  -0.053481  -0.007345
   35  O  3  Z    0.130812   0.037779   0.000480  -0.052007  -0.033708
   36  O  3  S   -0.043172  -0.062987   2.430026  -1.407672  -0.062926
   37  O  3  X    0.001110  -0.260575   0.068311  -0.599158  -0.045384
   38  O  3  Y    0.024928   0.102760  -1.097440   0.266081   0.019469
   39  O  3  Z    0.232456   0.091592   0.072056  -0.129550  -0.038218
   40  O  3 XX    0.003564  -0.008683  -0.051532   0.041868   0.010401
   41  O  3 YY    0.005916  -0.003874   0.011785  -0.001693   0.023189
   42  O  3 ZZ    0.006468   0.009718  -0.078960   0.027738   0.003939
   43  O  3 XY   -0.002260   0.001534  -0.020609   0.014138  -0.004583
   44  O  3 XZ    0.001350  -0.000380   0.006925   0.007258  -0.006037
   45  O  3 YZ    0.001753   0.003153  -0.011418   0.003962   0.058308
   46  O  4  S    0.002347   0.021614  -0.029755  -0.086372   0.002067
   47  O  4  S    0.026689  -0.024340   0.040767   0.118626   0.029420
   48  O  4  X    0.056474  -0.113454   0.096575   0.210336   0.025927
   49  O  4  Y   -0.007727  -0.067172   0.157257   0.092198   0.007131
   50  O  4  Z    0.097183   0.017698  -0.018849   0.051809  -0.060654
   51  O  4  S   -0.142122  -0.320409   0.480990   1.685446  -0.097285
   52  O  4  X    0.092664  -0.433502   0.107272   0.872280  -0.059132
   53  O  4  Y   -0.023619  -0.109230   0.630006   0.647942  -0.000883
   54  O  4  Z    0.161479   0.031083  -0.018588   0.123248  -0.052629
   55  O  4 XX    0.006266   0.015500   0.020405  -0.015537   0.013019
   56  O  4 YY    0.009816  -0.003299   0.008792  -0.004238   0.015106
   57  O  4 ZZ    0.012194   0.009158  -0.034946  -0.024073   0.009766
   58  O  4 XY    0.006215   0.005766  -0.000743   0.012261   0.002929
   59  O  4 XZ   -0.007507  -0.000762   0.013301  -0.002835  -0.019848
   60  O  4 YZ   -0.005073  -0.004222   0.000212   0.003305  -0.045563
   61  H  5  S   -0.002928  -0.063218  -0.066211   0.057570  -0.173917
   62  H  5  S   -0.835727   0.057401   0.358151  -0.454145  -0.108662
   63  H  6  S   -0.014086  -0.058936   0.016106  -0.127611  -0.163954
   64  H  6  S   -1.088601  -0.121626  -0.010330   0.513145  -0.099166
   65  H  7  S    0.018518  -0.077234   0.036502  -0.007374   0.355784
   66  H  7  S    1.699475  -0.171242   0.132139  -0.015585   0.155118
   67  H  8  S   -0.001216  -0.009259   0.094537  -0.017218  -0.010106
   68  H  8  S    0.235157  -0.163999   0.369716   0.534116   0.006950

                     26         27         28         29         30
                    0.7641     0.8060     0.8092     0.8299     0.9226
                     A          A          A          A          A   
    1  C  1  S   -0.006498   0.028525   0.014306  -0.002129   0.002943
    2  C  1  S    0.190878  -0.245403  -0.200020   0.064568   0.054972
    3  C  1  X   -0.416076   0.780307   0.310722  -0.105319   0.072973
    4  C  1  Y   -0.351270  -0.027271  -0.702843  -0.137255   0.010549
    5  C  1  Z   -0.080938  -0.219614   0.145077  -0.551924   0.104865
    6  C  1  S   -0.707821  -0.386896   0.354474  -0.161435  -0.985279
    7  C  1  X    0.646732  -0.817969  -0.171824   0.374750   0.356953
    8  C  1  Y    0.878103  -0.346825   1.858499   0.469736  -0.068692
    9  C  1  Z    0.213632   0.445017  -0.436035   1.473625  -0.400328
   10  C  1 XX   -0.030005  -0.031643   0.006792  -0.015864  -0.072001
   11  C  1 YY    0.007162  -0.015836   0.012288  -0.064233   0.056222
   12  C  1 ZZ    0.044785   0.015395  -0.039028   0.084345   0.006330
   13  C  1 XY   -0.013628   0.009834  -0.020718  -0.025850  -0.039181
   14  C  1 XZ   -0.018005   0.001615  -0.015621  -0.010751   0.011605
   15  C  1 YZ   -0.066942   0.017688  -0.095848  -0.009728  -0.003759
   16  C  2  S   -0.008492  -0.062009  -0.009200   0.005134  -0.046989
   17  C  2  S    0.462903   0.359578  -0.319158  -0.315954   0.329904
   18  C  2  X   -0.555365  -0.201720   0.407722   0.170898  -0.379695
   19  C  2  Y   -0.340826  -0.250610   0.063233   0.339831   0.839021
   20  C  2  Z    0.059397   0.221527  -0.116109   0.574326  -0.120359
   21  C  2  S   -0.542792  -0.806468  -0.077901   1.092071   0.343886
   22  C  2  X    0.938266   1.246073  -0.707215  -0.578087   1.246078
   23  C  2  Y   -0.251618   0.772491  -1.590439  -0.945680  -1.181050
   24  C  2  Z   -0.141996  -0.426787   0.307543  -1.312438   0.219892
   25  C  2 XX    0.083677  -0.126538  -0.092904   0.005673   0.078381
   26  C  2 YY   -0.027056  -0.003048   0.009938   0.016149  -0.123481
   27  C  2 ZZ    0.019629   0.075768   0.000970  -0.021934   0.061870
   28  C  2 XY   -0.043265  -0.005482   0.039216   0.051549   0.146902
   29  C  2 XZ   -0.008082   0.016047   0.004139   0.004622   0.000488
   30  C  2 YZ   -0.006149  -0.003388  -0.002439   0.005542   0.030271
   31  O  3  S   -0.011091   0.004799  -0.026011   0.006307   0.033167
   32  O  3  S   -0.052674  -0.019536  -0.070355   0.022124  -0.123020
   33  O  3  X   -0.035634  -0.159295  -0.142997   0.057017  -0.197035
   34  O  3  Y    0.056129  -0.019252  -0.049632   0.033863   0.280927
   35  O  3  Z    0.022914   0.032151   0.048900   0.115841  -0.028690
   36  O  3  S    0.583856  -0.005848   0.968133  -0.062496   0.551317
   37  O  3  X    0.003764  -0.268695   0.270559   0.049227  -0.169404
   38  O  3  Y   -0.207022  -0.124684  -0.283110   0.168992   0.147287
   39  O  3  Z    0.046262   0.070432   0.000515   0.164295  -0.037894
   40  O  3 XX   -0.037422  -0.012023   0.010481   0.021222  -0.035344
   41  O  3 YY    0.024244   0.014986  -0.068026  -0.004757   0.158413
   42  O  3 ZZ   -0.040070   0.005760  -0.036005   0.021232  -0.067741
   43  O  3 XY    0.039801  -0.001663  -0.043639  -0.016048  -0.091953
   44  O  3 XZ   -0.000711   0.017004  -0.013353   0.031431   0.009558
   45  O  3 YZ   -0.007964  -0.008944   0.009972  -0.036482  -0.022874
   46  O  4  S    0.012756   0.006183   0.009095   0.003806  -0.007933
   47  O  4  S    0.015168  -0.134201   0.096434   0.134214  -0.072733
   48  O  4  X    0.018321  -0.089561   0.061129   0.098933   0.069041
   49  O  4  Y   -0.171311  -0.059372   0.083331   0.081916   0.202354
   50  O  4  Z   -0.031440   0.088161  -0.076179   0.101535  -0.002184
   51  O  4  S    0.058044   0.834350  -0.882827  -0.915168   0.029789
   52  O  4  X   -0.223151   0.122687  -0.210662  -0.261763  -0.254098
   53  O  4  Y    0.022555   0.244778  -0.115345  -0.204977   0.004823
   54  O  4  Z    0.020809   0.068011  -0.036272   0.109854  -0.024667
   55  O  4 XX    0.002709   0.057840   0.028840  -0.022709  -0.118714
   56  O  4 YY    0.097407  -0.025584  -0.025176   0.006110  -0.008846
   57  O  4 ZZ   -0.013354  -0.076806   0.069022   0.094494  -0.006036
   58  O  4 XY    0.098626   0.072940  -0.041015  -0.075879  -0.028267
   59  O  4 XZ    0.020752   0.022740  -0.005479   0.024437  -0.020995
   60  O  4 YZ    0.013859   0.006405  -0.014588  -0.001273  -0.009475
   61  H  5  S    0.243326   0.036886   0.388148  -0.114719   0.127371
   62  H  5  S    0.209193  -0.083632   0.405577  -0.071966  -0.157686
   63  H  6  S   -0.305218   0.120150  -0.216544  -0.208559   0.000025
   64  H  6  S   -0.158588   0.110594  -0.305986  -0.226939   0.228868
   65  H  7  S    0.107560   0.188503  -0.094938   0.294165  -0.054925
   66  H  7  S    0.076751   0.109903  -0.061724   0.273681  -0.121166
   67  H  8  S   -0.207793   0.183744   0.072333  -0.073327  -0.149248
   68  H  8  S    0.358730   0.084662  -0.211120  -0.116753   0.265772

                     31         32         33         34         35
                    0.9977     1.0672     1.0942     1.1238     1.1631
                     A          A          A          A          A   
    1  C  1  S   -0.051278  -0.019235   0.001170   0.009901   0.001124
    2  C  1  S   -0.023345  -0.153172   0.170100   0.166048  -0.352751
    3  C  1  X   -0.107047  -0.215268   0.039849  -0.072064  -0.135081
    4  C  1  Y    0.042305  -0.199959  -0.341705  -0.335493  -0.557322
    5  C  1  Z   -0.005318   0.000520   0.422716  -0.681477   0.266084
    6  C  1  S   -0.957094   0.357618  -0.276711  -0.668725   0.356862
    7  C  1  X    1.406582   0.449190  -0.081478   0.184159   0.378261
    8  C  1  Y   -0.408477   0.446852   0.524373   0.351436   0.468413
    9  C  1  Z   -0.187783   0.011819  -0.553414   0.911276  -0.503172
   10  C  1 XX   -0.112579  -0.013574   0.039922   0.043250  -0.035555
   11  C  1 YY    0.017450  -0.030874  -0.080647   0.105254  -0.055035
   12  C  1 ZZ    0.002806  -0.010113   0.071217  -0.119654   0.025705
   13  C  1 XY    0.040620   0.069165   0.050866   0.090875   0.059859
   14  C  1 XZ    0.015985   0.012007  -0.067787   0.121316   0.001933
   15  C  1 YZ   -0.006723   0.000798   0.068744   0.040309   0.165759
   16  C  2  S    0.005437  -0.017667   0.049779   0.021748  -0.045039
   17  C  2  S   -1.255240   0.061138   0.307330   0.089780  -0.287879
   18  C  2  X   -0.558700  -0.244917  -0.012028  -0.027403  -0.041939
   19  C  2  Y   -0.066522   0.360460   0.063203   0.033898   0.011632
   20  C  2  Z    0.043326  -0.019210   0.001005  -0.037809   0.014265
   21  C  2  S    3.012621   0.135142   0.033750   0.297897  -0.015341
   22  C  2  X    1.939148   0.311481  -0.177707   0.332074   0.755538
   23  C  2  Y   -0.118804  -0.170437   0.078537   0.112729   0.207606
   24  C  2  Z   -0.102963  -0.002315  -0.032896  -0.016794   0.100365
   25  C  2 XX   -0.059588  -0.068749   0.044220  -0.026103  -0.046610
   26  C  2 YY   -0.026955   0.030907   0.214326   0.096819  -0.189530
   27  C  2 ZZ   -0.071488   0.009461  -0.067302  -0.013025   0.063970
   28  C  2 XY   -0.020468  -0.158036  -0.056527  -0.025615   0.011542
   29  C  2 XZ    0.005673  -0.018650   0.077874  -0.077260   0.029201
   30  C  2 YZ    0.000430  -0.007235  -0.023238   0.017542   0.032004
   31  O  3  S   -0.009926   0.012610  -0.002765   0.001441   0.012299
   32  O  3  S    0.068513  -0.319464  -0.345787  -0.042830   0.163116
   33  O  3  X   -0.175774   0.053048   0.089177   0.082932  -0.100567
   34  O  3  Y   -0.194897  -0.131976  -0.444942  -0.171022   0.394622
   35  O  3  Z    0.057750   0.056379   0.091408  -0.003996   0.042548
   36  O  3  S   -0.247827   0.393845   0.374477  -0.058218  -0.265017
   37  O  3  X   -0.114445  -0.181333  -0.222349  -0.229149   0.003797
   38  O  3  Y    0.018833   0.519436   0.744070   0.296948  -0.628881
   39  O  3  Z   -0.019762  -0.086417  -0.092123  -0.047343  -0.031199
   40  O  3 XX   -0.007833  -0.134769  -0.123860  -0.023903   0.098420
   41  O  3 YY   -0.030194  -0.070911  -0.224400  -0.067518   0.133596
   42  O  3 ZZ    0.062075  -0.116423  -0.131298  -0.009735   0.081767
   43  O  3 XY    0.049931   0.012447   0.017857  -0.010710  -0.022784
   44  O  3 XZ    0.001105  -0.008645  -0.004782  -0.003553   0.003851
   45  O  3 YZ    0.010231  -0.006432   0.013433  -0.009052  -0.001064
   46  O  4  S   -0.003155   0.019249  -0.007883  -0.007342  -0.012185
   47  O  4  S   -0.137538   0.056736  -0.011172   0.264174   0.217952
   48  O  4  X   -0.012238   0.144592  -0.119108  -0.085941  -0.122043
   49  O  4  Y    0.226637  -0.504559   0.366899   0.140684  -0.175755
   50  O  4  Z    0.105627  -0.071462  -0.034826  -0.134087   0.058496
   51  O  4  S    0.199098  -0.158796   0.034215  -0.358522  -0.049410
   52  O  4  X   -0.162577   0.361157  -0.048122  -0.005358   0.251935
   53  O  4  Y   -0.116301   0.587793  -0.425552  -0.078904   0.446593
   54  O  4  Z   -0.075331   0.106344   0.038600   0.118963  -0.031106
   55  O  4 XX   -0.046417   0.168801  -0.045552   0.035553   0.013176
   56  O  4 YY   -0.081692   0.040141  -0.038631   0.057609   0.121931
   57  O  4 ZZ   -0.026364  -0.025107  -0.016764   0.094384   0.083415
   58  O  4 XY   -0.013686  -0.054452   0.012794   0.051393   0.031159
   59  O  4 XZ    0.003816   0.014721   0.002747   0.008104  -0.007409
   60  O  4 YZ   -0.006224  -0.003417  -0.012728   0.010094  -0.014157
   61  H  5  S   -0.204403  -0.158529  -0.480214   0.055451  -0.561889
   62  H  5  S   -0.290205   0.209341   0.983794  -0.007359   0.832411
   63  H  6  S   -0.230204   0.084884   0.026397   0.653419   0.488046
   64  H  6  S   -0.266753  -0.582674  -0.042866  -0.996674  -0.828757
   65  H  7  S   -0.322080  -0.057771   0.361022  -0.618027   0.230697
   66  H  7  S   -0.269140  -0.100034  -0.583914   1.288876  -0.691731
   67  H  8  S    0.062481   0.727967  -0.204860  -0.286701  -0.252437
   68  H  8  S    0.043694  -0.312923   0.108958   0.374499   0.468409

                     36         37         38         39         40
                    1.1898     1.2156     1.2372     1.3235     1.3332
                     A          A          A          A          A   
    1  C  1  S    0.037429   0.002183   0.005430  -0.070979   0.026421
    2  C  1  S   -1.214086  -0.190201  -0.012481  -1.146828   0.327948
    3  C  1  X   -0.425810  -0.027044  -0.231927  -0.086973   0.018535
    4  C  1  Y    0.183026   0.149814  -0.297739  -0.034338  -0.001208
    5  C  1  Z    0.038265   0.036071  -0.112502  -0.204438   0.088558
    6  C  1  S    2.235919   0.339454   0.766958   4.347143  -1.515935
    7  C  1  X    0.789122   0.069972  -0.141684  -0.627051   0.462085
    8  C  1  Y   -0.202503  -0.585089   0.340579   0.342102  -0.004081
    9  C  1  Z   -0.127408   0.161290   0.395741   0.742402   0.086547
   10  C  1 XX   -0.185041  -0.043291   0.024618   0.039982  -0.016932
   11  C  1 YY   -0.020717  -0.015636   0.009474  -0.071406  -0.037071
   12  C  1 ZZ   -0.009181   0.022586  -0.021970  -0.149502   0.104921
   13  C  1 XY    0.048605  -0.036418  -0.024446  -0.014623   0.016794
   14  C  1 XZ    0.012060   0.024147   0.042459  -0.017419   0.055465
   15  C  1 YZ   -0.035408   0.014022   0.084581  -0.027336  -0.002956
   16  C  2  S   -0.001793  -0.008604   0.012778   0.004833  -0.013199
   17  C  2  S   -0.216657  -0.132538   0.211024   0.507733  -0.309903
   18  C  2  X   -0.053191  -0.030239   0.089010   0.115430  -0.057725
   19  C  2  Y    0.002310  -0.068814  -0.133185   0.001888   0.070988
   20  C  2  Z   -0.013160   0.105192   0.008433   0.068328   0.189600
   21  C  2  S    0.933470   0.309838  -0.346847  -3.915812   1.752476
   22  C  2  X    0.184758   0.119527  -1.007182  -1.154668   0.462352
   23  C  2  Y   -0.183954   0.365974   0.621989   0.379680  -0.352470
   24  C  2  Z    0.021221  -0.483257  -0.140043  -0.137270  -0.935679
   25  C  2 XX   -0.075986  -0.002592   0.088755   0.102578  -0.057601
   26  C  2 YY    0.087423  -0.027552   0.039720  -0.149164  -0.004955
   27  C  2 ZZ    0.004735   0.010369  -0.022340  -0.017911   0.052734
   28  C  2 XY    0.021423   0.017809   0.089047  -0.053407  -0.032480
   29  C  2 XZ    0.004223   0.004175  -0.013445  -0.002114   0.007957
   30  C  2 YZ   -0.014890   0.066268   0.030928  -0.024825  -0.066926
   31  O  3  S   -0.000507   0.002827   0.011947  -0.025596   0.014039
   32  O  3  S   -0.029653   0.033999   0.056476  -0.432875   0.206735
   33  O  3  X    0.089103  -0.116399  -0.172070  -0.188259  -0.104262
   34  O  3  Y   -0.147680   0.049086   0.119455   0.051507  -0.174853
   35  O  3  Z    0.008569   0.292672  -0.196313  -0.246560  -0.816645
   36  O  3  S   -0.042338  -0.277775  -0.552661   1.371728  -0.631010
   37  O  3  X   -0.185911   0.099499   0.248151   0.573208   0.026904
   38  O  3  Y    0.232176  -0.083890  -0.046857  -0.412046   0.413553
   39  O  3  Z   -0.010701  -0.239911   0.196343   0.360397   1.178574
   40  O  3 XX   -0.011082   0.016755   0.028711  -0.075612   0.035332
   41  O  3 YY   -0.063373   0.003249   0.026030  -0.068606   0.066168
   42  O  3 ZZ    0.006994   0.033840   0.046214  -0.229241   0.093797
   43  O  3 XY   -0.016981   0.002331  -0.001931   0.023721  -0.000805
   44  O  3 XZ   -0.001313  -0.015169  -0.005701  -0.011194  -0.030072
   45  O  3 YZ    0.010033  -0.025518  -0.003513  -0.005555   0.054808
   46  O  4  S    0.006881   0.000231  -0.009150  -0.027057   0.010948
   47  O  4  S    0.047618  -0.047378  -0.703727  -0.350748   0.251753
   48  O  4  X   -0.006387   0.092802   0.489627  -0.548811   0.061514
   49  O  4  Y    0.110360   0.069974   0.294354   0.074176  -0.065410
   50  O  4  Z    0.114135  -0.858780   0.064263  -0.096968  -0.253380
   51  O  4  S   -0.295540   0.162698   1.436507   1.153115  -0.844914
   52  O  4  X   -0.207795  -0.102597  -0.335696   1.281978  -0.296072
   53  O  4  Y   -0.187697  -0.108396  -0.656751   0.151002   0.051889
   54  O  4  Z   -0.151694   1.127187  -0.060506   0.188040   0.464313
   55  O  4 XX    0.032577   0.002499  -0.166844  -0.139548   0.077922
   56  O  4 YY   -0.033320  -0.011505  -0.214105   0.008854   0.004065
   57  O  4 ZZ    0.043392  -0.027019  -0.309187  -0.193105   0.155812
   58  O  4 XY    0.019477   0.006735  -0.074756  -0.062907   0.034760
   59  O  4 XZ    0.001891  -0.051349   0.001686  -0.014243  -0.043121
   60  O  4 YZ    0.002486  -0.041273   0.008825   0.018844  -0.000765
   61  H  5  S    0.614400   0.004923  -0.141585  -0.184210   0.032520
   62  H  5  S   -1.074251  -0.449908   0.200505  -0.720686   0.243611
   63  H  6  S    0.441686   0.029454   0.330030  -0.277724   0.061999
   64  H  6  S   -0.877052   0.128032  -0.598430  -0.794536   0.074859
   65  H  7  S    0.497311   0.134539   0.035519  -0.246561   0.202143
   66  H  7  S   -1.024375  -0.179826   0.228484   0.015957  -0.053902
   67  H  8  S   -0.072529   0.028883   0.594881   0.012638  -0.123712
   68  H  8  S   -0.019622  -0.049791  -1.034159   0.387844   0.154584

                     41         42         43         44         45
                    1.3614     1.5563     1.5941     1.6731     1.7723
                     A          A          A          A          A   
    1  C  1  S    0.035948  -0.088956  -0.047112  -0.032163   0.044521
    2  C  1  S    0.213227  -1.168120  -0.483952  -0.371781   0.504977
    3  C  1  X   -0.039244   0.211195   0.017101   0.024649  -0.023193
    4  C  1  Y    0.110540   0.035713   0.002725  -0.000282  -0.084886
    5  C  1  Z   -0.064789  -0.007814   0.126797   0.012570   0.054722
    6  C  1  S   -0.073585   3.342435   2.185957   1.510647  -2.244128
    7  C  1  X   -0.228449  -0.794894  -0.587220  -0.385041   0.594324
    8  C  1  Y   -0.145524   0.000453   0.111343   0.287673  -0.257260
    9  C  1  Z    0.173067  -0.102974   0.123506  -0.018057  -0.025522
   10  C  1 XX    0.051053  -0.054548   0.017595   0.043143  -0.010544
   11  C  1 YY    0.021263  -0.026603  -0.233941  -0.101894   0.023115
   12  C  1 ZZ   -0.011096  -0.099390   0.134305   0.009540   0.046864
   13  C  1 XY   -0.016172  -0.046909  -0.078893   0.085397  -0.134918
   14  C  1 XZ    0.000349  -0.040405   0.356390   0.038959   0.244689
   15  C  1 YZ    0.042222   0.076592  -0.073169  -0.013191   0.094740
   16  C  2  S    0.009140   0.032678   0.026129   0.020098  -0.013581
   17  C  2  S    0.117480   0.204787   0.281917   0.192400  -0.140886
   18  C  2  X    0.228188   0.084728  -0.020883   0.037361  -0.045032
   19  C  2  Y    0.035005  -0.015776   0.006081   0.028456  -0.037985
   20  C  2  Z   -0.052579   0.024996  -0.074963  -0.012323  -0.047489
   21  C  2  S   -0.195132  -1.993004   0.041268  -0.214283  -0.549279
   22  C  2  X   -0.978863  -0.475249  -1.673650  -0.964689   2.325822
   23  C  2  Y   -0.093702  -0.444500   0.222959   0.237313   1.234652
   24  C  2  Z    0.192938   0.102375   0.072416   0.088256   0.154869
   25  C  2 XX    0.076438   0.014442  -0.054167  -0.065850  -0.032822
   26  C  2 YY   -0.049864   0.084771   0.094505   0.091044  -0.019089
   27  C  2 ZZ   -0.005282  -0.085241  -0.005640  -0.010963   0.008857
   28  C  2 XY   -0.124410   0.072998   0.054291  -0.106817  -0.072826
   29  C  2 XZ   -0.006392   0.030666  -0.497320   0.085633  -0.257761
   30  C  2 YZ    0.005427  -0.084478  -0.013180   0.549431   0.097054
   31  O  3  S    0.005169  -0.018237   0.029740   0.021040   0.001920
   32  O  3  S    0.099251  -0.117162   0.381476   0.315446   0.146380
   33  O  3  X   -0.747779   0.061726  -0.106502   0.011706   0.192513
   34  O  3  Y   -0.293461  -0.119510  -0.039438  -0.050560  -0.085516
   35  O  3  Z    0.190848  -0.015586   0.023916  -0.131927   0.001835
   36  O  3  S   -0.278932   0.871953  -1.315155  -0.959918  -0.255587
   37  O  3  X    1.201141   0.032652   0.236502   0.063474  -0.705154
   38  O  3  Y    0.521035  -0.054196   0.446466   0.342569  -0.101003
   39  O  3  Z   -0.280519   0.084161  -0.162279  -0.125179  -0.119869
   40  O  3 XX   -0.033895   0.080144   0.114135   0.034991   0.167100
   41  O  3 YY    0.085851  -0.016371   0.086051   0.092628   0.001786
   42  O  3 ZZ    0.027464  -0.204164   0.138614   0.130222  -0.059830
   43  O  3 XY    0.094424   0.036799  -0.070863   0.037713  -0.028936
   44  O  3 XZ    0.002755  -0.029382  -0.151626   0.164126   0.073672
   45  O  3 YZ   -0.010686   0.030937  -0.139711  -0.276190  -0.129423
   46  O  4  S   -0.010847  -0.035625   0.043844   0.005685  -0.085392
   47  O  4  S   -0.012972  -0.409682   0.595419   0.124137  -1.352366
   48  O  4  X    0.042801   0.519933   0.024774   0.047794  -0.248221
   49  O  4  Y   -0.134621  -0.280144   0.147523   0.035541  -0.259910
   50  O  4  Z    0.126903  -0.010639   0.019690   0.098850  -0.043810
   51  O  4  S   -0.142139   1.253606  -1.796929  -0.380110   4.134560
   52  O  4  X   -0.046156  -1.302585  -0.048400  -0.128115   0.702466
   53  O  4  Y    0.214717   0.625002  -0.657714  -0.186975   1.269378
   54  O  4  Z   -0.216416  -0.051425  -0.192202  -0.020222   0.112591
   55  O  4 XX   -0.054423  -0.171580   0.265325   0.123987  -0.490400
   56  O  4 YY   -0.069677  -0.185178   0.120463   0.000506  -0.509035
   57  O  4 ZZ    0.092062  -0.020336   0.132620  -0.037466  -0.039011
   58  O  4 XY    0.015345   0.103786   0.028207   0.071199  -0.042940
   59  O  4 XZ    0.009620  -0.001518   0.046929  -0.408826  -0.052205
   60  O  4 YZ    0.011330   0.042591   0.283166  -0.183173   0.068957
   61  H  5  S    0.115050  -0.367194  -0.271307  -0.043343   0.105087
   62  H  5  S   -0.050216  -0.308186  -0.104085   0.023824   0.201268
   63  H  6  S    0.216415  -0.260703  -0.235780  -0.187302   0.111168
   64  H  6  S    0.014924  -0.208456  -0.063409  -0.167949   0.047954
   65  H  7  S    0.150387  -0.378232   0.001963  -0.113876   0.238354
   66  H  7  S    0.189796  -0.387206  -0.231820  -0.134485   0.173594
   67  H  8  S   -0.196151  -0.497370   0.113792  -0.048768  -0.186060
   68  H  8  S    0.080884  -0.674321   0.052151  -0.087511   0.026675

                     46         47         48         49         50
                    1.8354     2.0060     2.0274     2.0814     2.1013
                     A          A          A          A          A   
    1  C  1  S    0.028237  -0.012068  -0.067595  -0.015866  -0.013549
    2  C  1  S    0.352517  -0.209883  -0.090193  -0.329778   0.050594
    3  C  1  X    0.033996   0.022703  -0.354504   0.074227  -0.105703
    4  C  1  Y    0.115296   0.007662   0.064510   0.044176   0.020046
    5  C  1  Z    0.036858   0.079218  -0.027587   0.020402   0.044666
    6  C  1  S   -1.766402   0.723346   2.500730   0.822755   0.464363
    7  C  1  X    0.506634  -0.193521  -0.716026  -0.443355  -0.076057
    8  C  1  Y    0.043823   0.042596   0.193641  -0.600695   0.080348
    9  C  1  Z   -0.040759  -0.217093   0.394669  -0.164187  -0.101439
   10  C  1 XX    0.100731   0.003994  -0.250016   0.243755  -0.052477
   11  C  1 YY   -0.082738  -0.073426   0.261341  -0.317130  -0.051822
   12  C  1 ZZ    0.016992   0.072160   0.008602   0.090332   0.110302
   13  C  1 XY    0.163065  -0.112025   0.095227   0.445367   0.066864
   14  C  1 XZ    0.119227   0.307857  -0.134889   0.046540   0.241749
   15  C  1 YZ   -0.172020   0.015214   0.043937  -0.354262  -0.085887
   16  C  2  S   -0.030147   0.004248   0.017353   0.030898  -0.007012
   17  C  2  S   -0.294037   0.051514   0.666866   0.308808   0.072355
   18  C  2  X    0.009201   0.034863   0.125577   0.042920   0.041960
   19  C  2  Y    0.013666  -0.006202   0.018673   0.007495  -0.007785
   20  C  2  Z   -0.037272  -0.027161  -0.013939  -0.002761  -0.002786
   21  C  2  S   -1.645464   0.021138  -2.338143  -1.461046   0.131070
   22  C  2  X    1.673645  -0.458008  -1.989978   0.693496  -0.760874
   23  C  2  Y   -2.561026   0.082827   0.599758   1.949599  -0.130240
   24  C  2  Z    0.225541   0.094804   0.010156   0.195406   0.054030
   25  C  2 XX    0.072717  -0.012713  -0.455101  -0.138795  -0.090655
   26  C  2 YY   -0.124140   0.034914   0.220348  -0.064621   0.111030
   27  C  2 ZZ    0.054647  -0.042124   0.200149   0.237138  -0.055724
   28  C  2 XY    0.103409   0.000278   0.121161  -0.384594   0.172443
   29  C  2 XZ   -0.178254   0.053699   0.013722  -0.004789   0.113048
   30  C  2 YZ    0.151635   0.062138  -0.006332  -0.097335  -0.006039
   31  O  3  S   -0.098804   0.004897   0.008784   0.020101   0.004497
   32  O  3  S   -1.659748   0.161918  -0.110762   0.244927   0.044332
   33  O  3  X   -0.097018   0.006076  -0.208745   0.070195  -0.121986
   34  O  3  Y    0.216268  -0.036484   0.134739   0.101332  -0.025413
   35  O  3  Z   -0.096022  -0.051800  -0.003682   0.055938   0.031006
   36  O  3  S    5.468245  -0.436461  -0.086795  -1.096894  -0.211360
   37  O  3  X    0.454513   0.023483   0.479061  -0.403606   0.240345
   38  O  3  Y   -1.653555   0.171442  -0.036063   0.064887   0.131179
   39  O  3  Z    0.194079   0.006901  -0.019527  -0.151907  -0.047894
   40  O  3 XX   -0.310885   0.044155  -0.153261  -0.314543   0.189004
   41  O  3 YY   -0.585773   0.084141  -0.131355   0.098636  -0.017870
   42  O  3 ZZ   -0.304787  -0.047479   0.242799   0.373534  -0.138741
   43  O  3 XY    0.072140   0.074663  -0.288601  -0.111974  -0.049839
   44  O  3 XZ    0.031785   0.142674  -0.032815   0.091519   0.779277
   45  O  3 YZ   -0.106650  -0.117583   0.011899   0.123933   0.326463
   46  O  4  S   -0.007640   0.004980   0.001248  -0.060582   0.014579
   47  O  4  S    0.042989   0.072944  -0.192954  -0.500429   0.081006
   48  O  4  X    0.166502  -0.001806  -0.158602   0.172452  -0.063169
   49  O  4  Y   -0.057335   0.008432   0.001659   0.102979  -0.061809
   50  O  4  Z    0.042138   0.015945   0.000961  -0.021439  -0.036676
   51  O  4  S   -0.045796  -0.262749   0.355785   2.529215  -0.556557
   52  O  4  X   -0.680140  -0.044863   0.460029   0.296621  -0.018127
   53  O  4  Y    0.456883  -0.111274  -0.108596   0.580071  -0.184958
   54  O  4  Z   -0.111456  -0.001494   0.002126   0.104272   0.005053
   55  O  4 XX    0.024050  -0.024915   0.164800  -0.382142   0.053241
   56  O  4 YY   -0.024840   0.076755  -0.461730  -0.014521   0.074684
   57  O  4 ZZ    0.020044  -0.008323   0.201994   0.044950  -0.089326
   58  O  4 XY    0.085364   0.007914   0.255914  -0.143340   0.015598
   59  O  4 XZ    0.050689   0.682774   0.106280   0.080253  -0.026442
   60  O  4 YZ   -0.016781  -0.588406  -0.105902   0.011987   0.246449
   61  H  5  S    0.074780  -0.023582  -0.294855  -0.077187  -0.074910
   62  H  5  S    0.023770  -0.033622  -0.106103  -0.167324   0.048700
   63  H  6  S    0.044436  -0.067103  -0.300899  -0.015415  -0.052666
   64  H  6  S    0.179585   0.019598  -0.131204   0.115342  -0.013581
   65  H  7  S    0.158841  -0.038055  -0.194286  -0.110379  -0.046636
   66  H  7  S    0.159360  -0.187784   0.150947  -0.125665  -0.062442
   67  H  8  S   -0.203755  -0.013030   0.047203  -0.133449   0.046388
   68  H  8  S   -0.018316  -0.037990  -0.103762   0.016506  -0.070078

                     51         52         53         54         55
                    2.1537     2.2230     2.2612     2.4444     2.5052
                     A          A          A          A          A   
    1  C  1  S   -0.017842  -0.015021  -0.010568   0.000285   0.006106
    2  C  1  S   -0.337930   0.107999   0.159500  -0.006920   0.108637
    3  C  1  X    0.040599  -0.097537  -0.113324   0.027294   0.035374
    4  C  1  Y   -0.095112   0.053534   0.030713   0.025433   0.130644
    5  C  1  Z    0.010665  -0.008126  -0.019390  -0.008072  -0.003599
    6  C  1  S    0.852749   0.205659   0.235890  -0.119874  -0.459103
    7  C  1  X   -0.200357  -0.000947  -0.157312   0.261252   0.322026
    8  C  1  Y    0.692517   0.069539  -0.204924   0.010479   0.606623
    9  C  1  Z   -0.266798  -0.226459  -0.278099   0.162134  -0.078454
   10  C  1 XX   -0.141517  -0.211884  -0.057157  -0.387171   0.106362
   11  C  1 YY    0.039494  -0.072634  -0.249150   0.239388  -0.111502
   12  C  1 ZZ    0.121767   0.282063   0.282258   0.184060  -0.007500
   13  C  1 XY   -0.503456   0.034818   0.068341   0.224085   0.420350
   14  C  1 XZ    0.253472   0.220743   0.298936  -0.335279   0.287349
   15  C  1 YZ    0.247311  -0.040431  -0.113587   0.198153   0.846756
   16  C  2  S    0.040887   0.025607   0.019353   0.027600  -0.018336
   17  C  2  S    0.185754   0.199199   0.278107   0.187077  -0.075784
   18  C  2  X    0.105776   0.097759   0.075919   0.185583   0.039022
   19  C  2  Y   -0.089795  -0.236356   0.069047  -0.140174   0.085009
   20  C  2  Z    0.032939   0.085785   0.119728  -0.167745   0.025057
   21  C  2  S   -2.003100  -0.867006  -0.816846  -0.031053   0.066216
   22  C  2  X    0.082140  -0.209119  -0.099553   0.208095   0.261114
   23  C  2  Y   -1.445908  -0.749913   0.872177  -0.163360  -0.620126
   24  C  2  Z    0.343602   0.335815   0.410716  -0.334536   0.049520
   25  C  2 XX    0.068441  -0.070823  -0.154731  -0.132836  -0.080852
   26  C  2 YY   -0.316947  -0.167264  -0.039497  -0.235805   0.155864
   27  C  2 ZZ    0.347011   0.324671   0.268755   0.591381  -0.101777
   28  C  2 XY    0.051527   0.291166  -0.176258  -0.048184  -0.207193
   29  C  2 XZ    0.074468   0.109395   0.168709  -0.162394   0.111607
   30  C  2 YZ    0.040275  -0.001989  -0.131528   0.108038   0.136390
   31  O  3  S   -0.045068  -0.025767   0.012911  -0.001867  -0.005103
   32  O  3  S   -0.465172  -0.026968  -0.073059   0.062781  -0.254741
   33  O  3  X    0.172369  -0.072429   0.033981   0.097956  -0.041536
   34  O  3  Y   -0.144336  -0.334053   0.165888  -0.158354   0.152020
   35  O  3  Z    0.041635   0.074875   0.119024  -0.056928  -0.006074
   36  O  3  S    2.397254   0.954966  -0.262989   0.147615   0.680884
   37  O  3  X    0.115207   0.333258  -0.110477  -0.114512   0.055122
   38  O  3  Y   -0.607168  -0.050469  -0.129349   0.009252  -0.214443
   39  O  3  Z    0.002929  -0.092693  -0.256516   0.201303  -0.032200
   40  O  3 XX   -0.616230   0.230123   0.291509   0.212513  -0.048158
   41  O  3 YY   -0.009755  -0.256459   0.196230   0.073253  -0.058786
   42  O  3 ZZ    0.339684  -0.008861  -0.474087  -0.204357  -0.026893
   43  O  3 XY    0.166483  -0.314180   0.343753   0.336691  -0.108243
   44  O  3 XZ    0.109503  -0.256421  -0.222644   0.182470  -0.139778
   45  O  3 YZ    0.185689   0.034057   0.206699  -0.273478   0.151872
   46  O  4  S    0.004132   0.017671  -0.022004   0.001390  -0.012086
   47  O  4  S    0.168916  -0.030384  -0.027980   0.271015  -0.044164
   48  O  4  X    0.064805  -0.006295   0.009709   0.115600   0.023665
   49  O  4  Y    0.057776  -0.173117   0.217772   0.160950   0.023447
   50  O  4  Z    0.044946   0.075600   0.064691  -0.048523  -0.001009
   51  O  4  S   -0.414934  -0.302821   0.710722  -0.424814   0.096021
   52  O  4  X   -0.128404  -0.057240   0.365503  -0.051793  -0.217723
   53  O  4  Y    0.061873   0.132037  -0.070688  -0.207769   0.111066
   54  O  4  Z   -0.125454  -0.198318  -0.138348   0.198046   0.018959
   55  O  4 XX    0.016767  -0.379248   0.214664  -0.238682   0.064471
   56  O  4 YY   -0.024288   0.514398  -0.386396   0.162096   0.086706
   57  O  4 ZZ    0.127573  -0.099685   0.118786   0.195873  -0.200011
   58  O  4 XY   -0.002489  -0.144519   0.118927  -0.164148  -0.113638
   59  O  4 XZ   -0.109232  -0.230932  -0.225987   0.230269   0.093671
   60  O  4 YZ    0.039223  -0.220020  -0.154330   0.239579   0.153022
   61  H  5  S   -0.000327  -0.038185   0.012322   0.008448   0.653396
   62  H  5  S    0.165000   0.015161   0.015294  -0.057045   0.027529
   63  H  6  S   -0.054955  -0.038690   0.045712  -0.164115  -0.645908
   64  H  6  S   -0.181925   0.076295   0.087640  -0.023245   0.042419
   65  H  7  S   -0.168775  -0.204786  -0.195529  -0.153402   0.014016
   66  H  7  S   -0.119233  -0.001191   0.013003   0.071356   0.009046
   67  H  8  S    0.014748   0.157575   0.023893   0.196551  -0.235967
   68  H  8  S    0.079532  -0.001573   0.030177   0.036302  -0.006603

                     56         57         58         59         60
                    2.5254     2.5884     2.7481     2.8627     2.9561
                     A          A          A          A          A   
    1  C  1  S    0.008120  -0.042823   0.012645   0.051129   0.001899
    2  C  1  S    0.046216  -0.378820  -0.036986   0.021105   0.045561
    3  C  1  X    0.059482  -0.136272   0.035498   0.236892  -0.001027
    4  C  1  Y   -0.010755   0.072257  -0.022381  -0.067295  -0.046696
    5  C  1  Z    0.138802   0.015460   0.008784  -0.014189   0.007976
    6  C  1  S   -0.472766   2.251930  -0.096708  -1.273389  -0.164750
    7  C  1  X    0.261595  -1.001177   0.133041   0.699158  -0.010528
    8  C  1  Y   -0.047494   0.409228  -0.086987  -0.107394  -0.262704
    9  C  1  Z    0.409021   0.260487   0.110387  -0.179334  -0.033280
   10  C  1 XX   -0.098973   0.704704   0.018967  -0.447144   0.004832
   11  C  1 YY    0.812074  -0.245274   0.211486   0.063205  -0.098753
   12  C  1 ZZ   -0.700487  -0.469453  -0.164160   0.502273   0.071278
   13  C  1 XY    0.206950  -0.045596   0.227990   0.384641   0.109384
   14  C  1 XZ    0.362843  -0.142273   0.393361  -0.097488  -0.169959
   15  C  1 YZ   -0.135089   0.251832  -0.139380   0.155561  -0.153896
   16  C  2  S    0.001834   0.065703  -0.030596  -0.080380   0.028528
   17  C  2  S   -0.062253   0.260860   0.026889   0.025626  -0.165742
   18  C  2  X    0.133264  -0.396375   0.079946   0.258598   0.186040
   19  C  2  Y   -0.030224  -0.035473   0.007502  -0.029568   0.263443
   20  C  2  Z    0.148056   0.077940  -0.096613   0.063342   0.156497
   21  C  2  S    0.221488  -1.075950   0.961927   1.626226  -0.376573
   22  C  2  X    0.445515  -1.845128  -0.253526   0.696419   0.473858
   23  C  2  Y   -0.103763   0.090838   0.273114   0.034651   0.773707
   24  C  2  Z   -0.037144   0.047075  -0.273342   0.103754   0.152333
   25  C  2 XX   -0.057898  -0.031551   0.148812   0.387498   0.092934
   26  C  2 YY    0.000374  -0.207719  -0.046797  -0.001050  -0.156762
   27  C  2 ZZ    0.134115   0.301684  -0.246827  -0.677151   0.141795
   28  C  2 XY   -0.068505   0.150365   0.244338   0.141995   0.176882
   29  C  2 XZ   -0.285550  -0.187354   0.623131  -0.488696  -0.173089
   30  C  2 YZ   -0.013581   0.034011   0.098656  -0.152417   0.865384
   31  O  3  S   -0.010745   0.006656   0.010842   0.011509  -0.000762
   32  O  3  S    0.018620   0.223371   0.197206   0.024196   0.378817
   33  O  3  X    0.043633   0.014699   0.046621   0.033994   0.087308
   34  O  3  Y   -0.031289  -0.134474  -0.031253   0.037301  -0.213773
   35  O  3  Z    0.021425   0.038152  -0.006776   0.013500   0.008187
   36  O  3  S    0.165171  -0.502316  -0.764176  -0.349580  -0.671392
   37  O  3  X   -0.123866   0.293316  -0.147871  -0.269879  -0.273790
   38  O  3  Y   -0.051898   0.254576   0.196782  -0.012214   0.188199
   39  O  3  Z   -0.067414  -0.103203   0.100256  -0.104726  -0.375675
   40  O  3 XX   -0.087816   0.306286  -0.073817  -0.230635  -0.036949
   41  O  3 YY    0.136156  -0.144483   0.086832   0.228023   0.179806
   42  O  3 ZZ   -0.108566  -0.029087   0.092047   0.084549  -0.035598
   43  O  3 XY    0.117819  -0.150578   0.151182   0.188173   0.124097
   44  O  3 XZ   -0.027141   0.118566  -0.172042   0.073031  -0.328494
   45  O  3 YZ    0.217862   0.218974  -0.262974   0.187297   0.714691
   46  O  4  S   -0.018456   0.035474   0.033797   0.027453  -0.015223
   47  O  4  S    0.019495   0.520696   0.198687   0.102791  -0.498600
   48  O  4  X    0.079438   0.024340  -0.094660  -0.091098  -0.102202
   49  O  4  Y    0.046997   0.100529  -0.048307  -0.038364  -0.097386
   50  O  4  Z    0.031516   0.025460  -0.042903   0.000844  -0.009613
   51  O  4  S    0.238331  -1.569661  -0.917707  -0.584651   1.404442
   52  O  4  X   -0.204612   0.400263   0.486605   0.383827   0.437247
   53  O  4  Y    0.116471  -0.739880  -0.409012  -0.195294   0.510352
[...]
  67.  H 8 (s)    0.5359  0.3910 -0.1307  0.8313  0.0499  0.0718  0.4350  0.0427
  68.  H 8 (s)    0.0114  0.7979  0.1889  0.3003  0.1163  0.0579  0.2769  0.5357

          AO        57      58      59      60      61      62      63      64
      ---------- ------- ------- ------- ------- ------- ------- ------- -------
   1.  C 1 (s)   -0.0216 -0.0214 -0.0200  0.0148 -0.0813 -0.0783  0.0789 -0.0796
   2.  C 1 (s)   -0.2340 -0.2256 -0.2285  0.0719  0.4138  0.3275 -0.3322  0.3355
   3.  C 1 (px)  -0.0169 -0.0741 -0.0065  0.0450 -0.6772  0.1325 -0.3748  0.1615
   4.  C 1 (py)   0.1429 -0.1222  0.0066 -0.0174  0.1505 -0.5976 -0.4971 -0.0557
   5.  C 1 (pz)  -0.0801 -0.0690  0.1514 -0.0009  0.0718  0.3192 -0.2866 -0.6590
   6.  C 1 (s)    1.2029  1.1824  1.0679 -0.9242  0.1369  0.4313 -0.4256  0.4463
   7.  C 1 (px)   0.2307  0.5934  0.3280  0.3686 -0.3384  0.0830 -0.2488  0.0960
   8.  C 1 (py)  -0.8826  0.7093 -0.1046 -0.2121  0.0704 -0.4052 -0.3374 -0.0370
   9.  C 1 (pz)   0.4782  0.4270 -0.9677 -0.0950  0.0177  0.2210 -0.1983 -0.4536
  10.  C 1 (d1)  -0.0063 -0.0215 -0.0120 -0.0070  0.0723  0.0230 -0.0351  0.0262
  11.  C 1 (d4)  -0.0441 -0.0282 -0.0059 -0.0031  0.0228  0.0597 -0.0491  0.0254
  12.  C 1 (d6)  -0.0156 -0.0129 -0.0509  0.0073  0.0279  0.0347 -0.0333  0.0680
  13.  C 1 (d2)   0.0136 -0.0249  0.0021  0.0097 -0.0107 -0.0071 -0.0210 -0.0007
  14.  C 1 (d3)  -0.0075 -0.0143  0.0177  0.0034 -0.0044  0.0035 -0.0110 -0.0095
  15.  C 1 (d5)   0.0223 -0.0151 -0.0056 -0.0045  0.0008 -0.0211 -0.0159  0.0040
  16.  C 2 (s)   -0.0084 -0.0081 -0.0055  0.0033  0.0929  0.0024 -0.0031  0.0022
  17.  C 2 (s)   -0.0965 -0.0897 -0.1631  0.0569 -0.5587  0.0059 -0.0018  0.0128
  18.  C 2 (px)  -0.0081 -0.0113 -0.0200 -0.0394 -0.7202  0.0011  0.0234 -0.0008
  19.  C 2 (py)   0.0085 -0.0026  0.0077  0.0516  0.1661  0.0572  0.0504  0.0020
  20.  C 2 (pz)  -0.0089 -0.0100  0.0211  0.0004  0.0164 -0.0272  0.0237  0.0514
  21.  C 2 (s)    0.1514  0.1462  0.3767 -0.2197 -0.2376  0.0009 -0.0008 -0.0332
  22.  C 2 (px)   0.1610  0.1685  0.2372  1.3555 -0.1304 -0.0227  0.0311 -0.0423
  23.  C 2 (py)  -0.0083 -0.0165 -0.0599  0.1102  0.0274  0.0232  0.0157  0.0133
  24.  C 2 (pz)  -0.0278 -0.0217 -0.0103  0.0516  0.0160 -0.0181  0.0173  0.0445
  25.  C 2 (d1)   0.0200  0.0162  0.0493 -0.0258 -0.0711  0.0062 -0.0065  0.0014
  26.  C 2 (d4)   0.0120  0.0158  0.0497 -0.0646 -0.0126  0.0025 -0.0008 -0.0035
  27.  C 2 (d6)   0.0158  0.0155  0.0467 -0.0121 -0.0272  0.0001  0.0001 -0.0048
  28.  C 2 (d2)   0.0034 -0.0058  0.0008 -0.0172  0.0256 -0.0028  0.0001 -0.0017
  29.  C 2 (d3)  -0.0043 -0.0024  0.0060 -0.0091  0.0020  0.0010 -0.0003 -0.0028
  30.  C 2 (d5)  -0.0024  0.0030 -0.0011 -0.0027  0.0000  0.0011  0.0011  0.0004
  31.  O 3 (s)   -0.0069 -0.0049  0.0029 -0.0078 -0.0113 -0.0014 -0.0006 -0.0004
  32.  O 3 (s)   -0.0014 -0.0233  0.0020  0.0477 -0.0578 -0.0107 -0.0162 -0.0027
  33.  O 3 (px)  -0.0022 -0.0082 -0.0075 -0.0217  0.0698  0.0188 -0.0094  0.0036
  34.  O 3 (py)  -0.0031  0.0025  0.0056 -0.0246  0.0121  0.0071 -0.0004 -0.0001
  35.  O 3 (pz)  -0.0008 -0.0038  0.0060  0.0008 -0.0058 -0.0029 -0.0101 -0.0092
  36.  O 3 (s)    0.0767  0.0742 -0.0458  0.2140  0.1766  0.0082  0.0258  0.0048
  37.  O 3 (px)   0.0207  0.0100 -0.0542 -0.1036  0.0084  0.0124  0.0012  0.0107
  38.  O 3 (py)  -0.0222  0.0053  0.0164 -0.0983 -0.0570  0.0065 -0.0023 -0.0010
  39.  O 3 (pz)  -0.0126  0.0325 -0.0008  0.0106  0.0052 -0.0013  0.0013 -0.0011
  40.  O 3 (d1)  -0.0080 -0.0142  0.0017 -0.0375 -0.0381 -0.0031 -0.0058 -0.0004
  41.  O 3 (d4)  -0.0068 -0.0118  0.0073 -0.0035 -0.0260 -0.0045 -0.0058 -0.0021
  42.  O 3 (d6)  -0.0154 -0.0146  0.0083 -0.0015 -0.0322 -0.0012 -0.0056 -0.0015
  43.  O 3 (d2)  -0.0026  0.0014  0.0063  0.0121  0.0169  0.0009 -0.0008 -0.0008
  44.  O 3 (d3)  -0.0032  0.0039  0.0013 -0.0076 -0.0033  0.0006  0.0009 -0.0003
  45.  O 3 (d5)  -0.0015 -0.0022  0.0005 -0.0021 -0.0018  0.0008 -0.0008 -0.0009
  46.  O 4 (s)   -0.0035 -0.0056  0.0031  0.0149 -0.0061 -0.0001  0.0013 -0.0005
  47.  O 4 (s)   -0.0205  0.0010  0.0002  0.0865 -0.0304  0.0140  0.0048 -0.0003
  48.  O 4 (px)  -0.0006  0.0060 -0.0041 -0.0726  0.0500  0.0074 -0.0201  0.0009
  49.  O 4 (py)  -0.0014  0.0038 -0.0034  0.0638 -0.0308 -0.0022  0.0140 -0.0001
  50.  O 4 (pz)  -0.0044  0.0000  0.0054 -0.0017 -0.0037  0.0110  0.0036 -0.0073
  51.  O 4 (s)    0.0570  0.0672 -0.0505 -0.3044  0.0857 -0.0191 -0.0047  0.0059
  52.  O 4 (px)   0.0470  0.0674 -0.0578  0.3982  0.0272 -0.0047 -0.0094  0.0117
  53.  O 4 (py)  -0.0218  0.0075  0.0033  0.3441  0.0414 -0.0012  0.0081 -0.0024
  54.  O 4 (pz)   0.0430 -0.0125 -0.0049  0.0533  0.0042 -0.0020  0.0010  0.0005
  55.  O 4 (d1)  -0.0127 -0.0055 -0.0001  0.1303 -0.0239  0.0040  0.0016 -0.0003
  56.  O 4 (d4)  -0.0074 -0.0055  0.0076  0.0638 -0.0103  0.0042  0.0014 -0.0014
  57.  O 4 (d6)  -0.0089 -0.0097  0.0064  0.0096 -0.0141  0.0038  0.0001 -0.0008
  58.  O 4 (d2)   0.0013  0.0033 -0.0041 -0.0414 -0.0125 -0.0009  0.0010  0.0004
  59.  O 4 (d3)   0.0040 -0.0021  0.0006  0.0061 -0.0022 -0.0009 -0.0003  0.0000
  60.  O 4 (d5)   0.0005  0.0017 -0.0008  0.0022  0.0007 -0.0003  0.0006  0.0007
  61.  H 5 (s)    1.0107 -0.0048 -0.0029  0.0170  0.0167 -0.8633 -0.0061  0.0082
  62.  H 5 (s)   -2.5138  0.1200  0.1336 -0.0061 -0.0090 -0.6190  0.0149 -0.0151
  63.  H 6 (s)   -0.0089  1.0047 -0.0033  0.0493  0.0200  0.0067  0.8730  0.0087
  64.  H 6 (s)    0.1205 -2.5090  0.1369  0.0293 -0.0048 -0.0139  0.6051 -0.0138
  65.  H 7 (s)   -0.0075 -0.0054  1.0106  0.0140  0.0194  0.0081 -0.0078 -0.8716
  66.  H 7 (s)    0.1343  0.1345 -2.4999 -0.0013 -0.0151 -0.0149  0.0156 -0.6091
  67.  H 8 (s)    0.0274  0.0280 -0.0035 -0.9840 -0.0177 -0.0009  0.0012  0.0004
  68.  H 8 (s)    0.0299  0.0328  0.0053  2.0806  0.0324 -0.0020 -0.0018  0.0000

          AO        65      66      67      68
      ---------- ------- ------- ------- -------
   1.  C 1 (s)    0.0069  0.0002  0.0051 -0.0028
   2.  C 1 (s)    0.0114  0.0077  0.0109  0.0170
   3.  C 1 (px)  -0.0025 -0.0114  0.0247 -0.0220
   4.  C 1 (py)  -0.0790  0.0062  0.0709 -0.0089
   5.  C 1 (pz)   0.0015 -0.0980  0.0075 -0.0031
   6.  C 1 (s)   -0.1046 -0.0093 -0.0676 -0.0701
   7.  C 1 (px)   0.0706  0.0015  0.0312  0.0097
   8.  C 1 (py)   0.0369 -0.0066 -0.0615 -0.0240
   9.  C 1 (pz)  -0.0246 -0.0355 -0.0131 -0.0049
  10.  C 1 (d1)   0.0001 -0.0023  0.0109  0.0011
  11.  C 1 (d4)   0.0021  0.0044 -0.0078  0.0016
  12.  C 1 (d6)  -0.0010  0.0013 -0.0006  0.0029
  13.  C 1 (d2)  -0.0130  0.0011  0.0077  0.0017
  14.  C 1 (d3)   0.0016 -0.0049 -0.0011  0.0003
  15.  C 1 (d5)   0.0055 -0.0008 -0.0051 -0.0002
  16.  C 2 (s)   -0.0782  0.0049 -0.0753 -0.0011
  17.  C 2 (s)    0.5253 -0.0759  0.4287  0.0267
  18.  C 2 (px)  -0.3026  0.0082 -0.5548 -0.0274
  19.  C 2 (py)   0.8149 -0.0821 -0.6293 -0.0381
  20.  C 2 (pz)   0.0055  0.7013 -0.0402 -0.0019
  21.  C 2 (s)    0.3627  0.0317  0.3299  0.0181
  22.  C 2 (px)  -0.0394 -0.0054 -0.1620  0.0845
  23.  C 2 (py)   0.2073 -0.0094 -0.1854 -0.0232
  24.  C 2 (pz)   0.0248  0.4438 -0.0161  0.0004
  25.  C 2 (d1)   0.0450  0.0006  0.0741  0.0096
  26.  C 2 (d4)   0.1215 -0.0071  0.0968  0.0030
  27.  C 2 (d6)   0.0544 -0.0161  0.0512  0.0079
  28.  C 2 (d2)  -0.0399 -0.0015  0.0700  0.0019
  29.  C 2 (d3)  -0.0015 -0.0237  0.0019 -0.0003
  30.  C 2 (d5)  -0.0009  0.0762  0.0046 -0.0002
  31.  O 3 (s)    0.0856 -0.0101  0.0086 -0.0012
  32.  O 3 (s)   -0.6089  0.0729  0.0253  0.0261
  33.  O 3 (px)  -0.1950  0.0535  0.0757 -0.0069
  34.  O 3 (py)   0.5951 -0.1007  0.0423 -0.0057
  35.  O 3 (pz)  -0.1231 -0.4409  0.0099  0.0011
  36.  O 3 (s)   -0.1333  0.0197 -0.0948 -0.0057
  37.  O 3 (px)  -0.1556  0.0422 -0.0084 -0.0126
  38.  O 3 (py)   0.4330 -0.0754  0.0348 -0.0022
  39.  O 3 (pz)  -0.0858 -0.3487 -0.0066  0.0005
  40.  O 3 (d1)  -0.0544  0.0101  0.0001  0.0034
  41.  O 3 (d4)  -0.1413  0.0273  0.0333  0.0060
  42.  O 3 (d6)  -0.0462 -0.0041  0.0155  0.0074
  43.  O 3 (d2)   0.0387 -0.0106  0.0133  0.0009
  44.  O 3 (d3)  -0.0056 -0.0173 -0.0044 -0.0008
  45.  O 3 (d5)   0.0172  0.0499  0.0004 -0.0001
  46.  O 4 (s)    0.0058 -0.0006  0.0870 -0.0698
  47.  O 4 (s)    0.0167  0.0080 -0.4392  0.3402
  48.  O 4 (px)   0.0545  0.0052 -0.3657 -0.5747
  49.  O 4 (py)  -0.0577  0.0111 -0.4445  0.1278
  50.  O 4 (pz)   0.0028 -0.0897 -0.0659 -0.0306
  51.  O 4 (s)   -0.0617 -0.0070 -0.2527  0.2797
  52.  O 4 (px)  -0.0273  0.0026 -0.2648 -0.4102
  53.  O 4 (py)  -0.0105  0.0009 -0.3419  0.1478
  54.  O 4 (pz)  -0.0119 -0.0514 -0.0437 -0.0168
  55.  O 4 (d1)   0.0002 -0.0001 -0.0406  0.0497
  56.  O 4 (d4)   0.0274  0.0007 -0.0689  0.0235
  57.  O 4 (d6)   0.0058  0.0039 -0.0181  0.0103
  58.  O 4 (d2)   0.0012 -0.0022 -0.0413 -0.0262
  59.  O 4 (d3)  -0.0022  0.0072 -0.0042  0.0013
  60.  O 4 (d5)   0.0013  0.0048 -0.0074 -0.0006
  61.  H 5 (s)    0.0180 -0.0026 -0.0076  0.0081
  62.  H 5 (s)    0.0293 -0.0030 -0.0130  0.0047
  63.  H 6 (s)   -0.0073  0.0042  0.0198  0.0121
  64.  H 6 (s)   -0.0108 -0.0023  0.0266  0.0074
  65.  H 7 (s)   -0.0031  0.0053 -0.0036  0.0028
  66.  H 7 (s)    0.0001  0.0046  0.0009  0.0057
  67.  H 8 (s)   -0.0151  0.0012 -0.0356 -1.0247
  68.  H 8 (s)    0.0155 -0.0031  0.0316 -0.3424


 SECOND ORDER PERTURBATION THEORY ANALYSIS OF FOCK MATRIX IN NBO BASIS

     Threshold for printing:   0.50 kcal/mol
                                                          E(2)  E(j)-E(i) F(i,j)
      Donor NBO (i)              Acceptor NBO (j)       kcal/mol   a.u.    a.u. 
 ===============================================================================

 within unit  1
   1. BD ( 1) C 1- C 2       37. RY*( 1) O 3              2.11    2.38    0.063
   1. BD ( 1) C 1- C 2       47. RY*( 1) O 4              1.21    2.45    0.049
   1. BD ( 1) C 1- C 2       65. BD*( 1) C 2- O 3         0.51    1.77    0.027
   1. BD ( 1) C 1- C 2       68. BD*( 1) O 4- H 8         4.28    1.62    0.074
   2. BD ( 1) C 1- H 5       65. BD*( 1) C 2- O 3         4.77    1.58    0.078
   2. BD ( 1) C 1- H 5       66. BD*( 2) C 2- O 3         1.83    0.91    0.038
   3. BD ( 1) C 1- H 6       27. RY*( 1) C 2              0.75    1.62    0.031
   3. BD ( 1) C 1- H 6       66. BD*( 2) C 2- O 3         0.83    0.91    0.026
   3. BD ( 1) C 1- H 6       67. BD*( 1) C 2- O 4         5.61    1.35    0.079
   4. BD ( 1) C 1- H 7       31. RY*( 5) C 2              0.79    2.00    0.036
   4. BD ( 1) C 1- H 7       65. BD*( 1) C 2- O 3         0.71    1.59    0.030
   4. BD ( 1) C 1- H 7       66. BD*( 2) C 2- O 3         9.78    0.91    0.087
   5. BD ( 1) C 2- O 3       17. RY*( 1) C 1              0.55    2.24    0.031
   5. BD ( 1) C 2- O 3       27. RY*( 1) C 2              1.64    2.28    0.055
   5. BD ( 1) C 2- O 3       61. BD*( 1) C 1- C 2         0.85    1.99    0.037
   5. BD ( 1) C 2- O 3       62. BD*( 1) C 1- H 5         0.58    2.04    0.031
   6. BD ( 2) C 2- O 3       48. RY*( 2) O 4              0.73    1.84    0.033
   6. BD ( 2) C 2- O 3       62. BD*( 1) C 1- H 5         1.07    1.22    0.032
   6. BD ( 2) C 2- O 3       64. BD*( 1) C 1- H 7         1.49    1.22    0.038
   7. BD ( 1) C 2- O 4       17. RY*( 1) C 1              0.61    2.12    0.032
   7. BD ( 1) C 2- O 4       63. BD*( 1) C 1- H 6         0.87    1.94    0.037
   8. BD ( 1) O 4- H 8       27. RY*( 1) C 2              2.08    1.93    0.057
   8. BD ( 1) O 4- H 8       28. RY*( 2) C 2              1.42    2.68    0.055
   8. BD ( 1) O 4- H 8       61. BD*( 1) C 1- C 2         6.03    1.64    0.090
   8. BD ( 1) O 4- H 8       65. BD*( 1) C 2- O 3         1.21    1.90    0.043
   9. CR ( 1) C 1            28. RY*( 2) C 2              0.86   12.78    0.094
   9. CR ( 1) C 1            33. RY*( 7) C 2              1.06   13.68    0.108
   9. CR ( 1) C 1            58. RY*( 1) H 6              0.52   11.93    0.071
   9. CR ( 1) C 1            59. RY*( 1) H 7              0.54   11.93    0.072
   9. CR ( 1) C 1            65. BD*( 1) C 2- O 3         0.72   12.00    0.084
   9. CR ( 1) C 1            67. BD*( 1) C 2- O 4         0.56   11.77    0.074
  10. CR ( 1) C 2            18. RY*( 2) C 1              0.98   12.42    0.099
  10. CR ( 1) C 2            67. BD*( 1) C 2- O 4         0.68   11.92    0.082
  10. CR ( 1) C 2            68. BD*( 1) O 4- H 8         0.69   12.01    0.082
  11. CR ( 1) O 3            27. RY*( 1) C 2              7.05   21.20    0.347
  11. CR ( 1) O 3            61. BD*( 1) C 1- C 2         0.66   20.91    0.106
  12. CR ( 1) O 4            27. RY*( 1) C 2              1.41   21.33    0.156
  12. CR ( 1) O 4            28. RY*( 2) C 2              2.14   22.08    0.194
  12. CR ( 1) O 4            30. RY*( 4) C 2              0.76   22.65    0.117
  13. LP ( 1) O 3            27. RY*( 1) C 2             21.50    1.86    0.179
  13. LP ( 1) O 3            28. RY*( 2) C 2              0.62    2.61    0.036
  13. LP ( 1) O 3            33. RY*( 7) C 2              0.54    3.51    0.039
  13. LP ( 1) O 3            61. BD*( 1) C 1- C 2         2.70    1.57    0.058
  13. LP ( 1) O 3            67. BD*( 1) C 2- O 4         1.58    1.59    0.045
  13. LP ( 1) O 3            68. BD*( 1) O 4- H 8         0.51    1.68    0.026
  14. LP ( 2) O 3            28. RY*( 2) C 2              4.37    2.10    0.088
  14. LP ( 2) O 3            30. RY*( 4) C 2              2.44    2.67    0.074
  14. LP ( 2) O 3            61. BD*( 1) C 1- C 2        21.10    1.07    0.136
  14. LP ( 2) O 3            62. BD*( 1) C 1- H 5         0.73    1.12    0.026
  14. LP ( 2) O 3            67. BD*( 1) C 2- O 4        40.04    1.09    0.188
  15. LP ( 1) O 4            27. RY*( 1) C 2              2.92    1.75    0.064
  15. LP ( 1) O 4            28. RY*( 2) C 2              1.58    2.50    0.056
  15. LP ( 1) O 4            30. RY*( 4) C 2              1.77    3.07    0.066
  15. LP ( 1) O 4            61. BD*( 1) C 1- C 2         0.60    1.46    0.027
  15. LP ( 1) O 4            65. BD*( 1) C 2- O 3         9.70    1.72    0.115
  16. LP ( 2) O 4            29. RY*( 3) C 2              3.33    2.79    0.089
  16. LP ( 2) O 4            35. RY*( 9) C 2              0.51    2.52    0.033
  16. LP ( 2) O 4            66. BD*( 2) C 2- O 3        64.75    0.73    0.195


 NATURAL BOND ORBITALS (Summary):

                                                     Principal Delocalizations
           NBO                 Occupancy    Energy   (geminal,vicinal,remote)
 ===============================================================================
 Molecular unit  1  (C2H4O2)
   1. BD ( 1) C  1- C  2        1.98839    -0.87780  68(v),37(v),47(v),65(g)
   2. BD ( 1) C  1- H  5        1.98847    -0.69590  65(v),66(v)
   3. BD ( 1) C  1- H  6        1.98691    -0.69529  67(v),66(v),27(v)
   4. BD ( 1) C  1- H  7        1.97523    -0.70012  66(v),31(v),65(v)
   5. BD ( 1) C  2- O  3        1.99814    -1.36110  27(g),61(g),62(v),17(v)
   6. BD ( 2) C  2- O  3        1.99399    -0.53639  64(v),62(v),48(v)
   7. BD ( 1) C  2- O  4        1.99761    -1.24756  63(v),17(v)
   8. BD ( 1) O  4- H  8        1.98854    -1.01066  61(v),27(v),28(v),65(v)
   9. CR ( 1) C  1              1.99934   -11.11387   33(v),28(v),65(v),67(v)
                                                    59(v),58(v)
  10. CR ( 1) C  2              1.99945   -11.26730   18(v),67(g),68(v)
  11. CR ( 1) O  3              1.99977   -20.27771   27(v),61(v)
  12. CR ( 1) O  4              1.99975   -20.41069   28(v),27(v),30(v)
  13. LP ( 1) O  3              1.97744    -0.93884   27(v),61(v),67(v),28(v)
                                                    33(v),68(r)
  14. LP ( 2) O  3              1.89618    -0.43364   67(v),61(v),28(v),30(v)
                                                    62(r)
  15. LP ( 1) O  4              1.98010    -0.83028   65(v),27(v),30(v),28(v)
                                                    61(v)
  16. LP ( 2) O  4              1.86709    -0.51726   66(v),29(v),35(v)
  17. RY*( 1) C  1              0.00222     0.87658
  18. RY*( 2) C  1              0.00080     1.15710
  19. RY*( 3) C  1              0.00036     1.16108
  20. RY*( 4) C  1              0.00017     1.97774
  21. RY*( 5) C  1              0.00009     2.39339
  22. RY*( 6) C  1              0.00001     4.28677
  23. RY*( 7) C  1              0.00001     1.92440
  24. RY*( 8) C  1              0.00001     2.12620
  25. RY*( 9) C  1              0.00001     1.98983
  26. RY*(10) C  1              0.00001     2.32357
  27. RY*( 1) C  2              0.02105     0.92140
  28. RY*( 2) C  2              0.01045     1.66884
  29. RY*( 3) C  2              0.00453     2.27636
  30. RY*( 4) C  2              0.00305     2.23939
  31. RY*( 5) C  2              0.00154     1.30041
  32. RY*( 6) C  2              0.00124     2.58783
  33. RY*( 7) C  2              0.00035     2.57037
  34. RY*( 8) C  2              0.00018     2.00953
  35. RY*( 9) C  2              0.00000     2.00474
  36. RY*(10) C  2              0.00001     2.80599
  37. RY*( 1) O  3              0.00228     1.50412
  38. RY*( 2) O  3              0.00032     1.39300
  39. RY*( 3) O  3              0.00014     2.32321
  40. RY*( 4) O  3              0.00006     2.40348
  41. RY*( 5) O  3              0.00004     2.62300
  42. RY*( 6) O  3              0.00001     3.33510
  43. RY*( 7) O  3              0.00001     2.12871
  44. RY*( 8) O  3              0.00000     2.34273
  45. RY*( 9) O  3              0.00001     1.95575
  46. RY*(10) O  3              0.00000     2.28770
  47. RY*( 1) O  4              0.00148     1.57627
  48. RY*( 2) O  4              0.00089     1.30240
  49. RY*( 3) O  4              0.00036     1.95106
  50. RY*( 4) O  4              0.00006     1.47070
  51. RY*( 5) O  4              0.00003     2.50150
  52. RY*( 6) O  4              0.00000     2.52205
  53. RY*( 7) O  4              0.00001     2.07384
  54. RY*( 8) O  4              0.00000     2.16231
  55. RY*( 9) O  4              0.00001     2.30371
  56. RY*(10) O  4              0.00001     4.13981
  57. RY*( 1) H  5              0.00082     0.82003
  58. RY*( 1) H  6              0.00058     0.81648
  59. RY*( 1) H  7              0.00040     0.81262
  60. RY*( 1) H  8              0.00214     0.75981
  61. BD*( 1) C  1- C  2        0.04012     0.63378
  62. BD*( 1) C  1- H  5        0.00503     0.68381
  63. BD*( 1) C  1- H  6        0.00277     0.69170
  64. BD*( 1) C  1- H  7        0.00353     0.68086
  65. BD*( 1) C  2- O  3        0.02085     0.88834
  66. BD*( 2) C  2- O  3        0.15409     0.21451  65(g),29(g),38(g),64(v)
                                                    35(g)
  67. BD*( 1) C  2- O  4        0.07205     0.65427
  68. BD*( 1) O  4- H  8        0.00942     0.73990
          -------------------------------
                 Total Lewis   31.63640  ( 98.8637%)
           Valence non-Lewis    0.30786  (  0.9621%)
           Rydberg non-Lewis    0.05574  (  0.1742%)
          -------------------------------
               Total unit  1   32.00000  (100.0000%)
              Charge unit  1    0.00000
 440000 WORDS OF DYNAMIC MEMORY USED
 EXECUTION OF GAMESS TERMINATED NORMALLY Thu Apr  2 16:49:21 2009
 DDI: 262808 bytes (0.3 MB / 0 MWords) used by master data server.

 ----------------------------------------
 CPU timing information for all processes
 ========================================
 0: 1.728108 + 0.352022 = 2.080130
 ----------------------------------------
 ddikick.x: exited gracefully.
----- accounting info -----
jue abr  2 16:49:24 CST 2009
Files used on the master node negramodelo were:
[0m-rw-r--r-- 1 vrosas vrosas      482 2009-04-02 16:49 [0m/temp/vrosas/hoac.F05[0m
-rw-r--r-- 1 vrosas vrosas 31502100 2009-04-02 16:49 [0m/temp/vrosas/hoac.F08[0m
-rw-r--r-- 1 vrosas vrosas  1033088 2009-04-02 16:49 [0m/temp/vrosas/hoac.F10[0m
[m0.0u 0.0s 0:06.80 0.5% 0+0k 0+16io 0pf+0w
