
 Version 3.3.4  of ABINIT 
 (sequential version, prepared for a P6/Linux computer) 

 Copyright (C) 1998-2002 ABINIT group . 
 ABINIT comes with ABSOLUTELY NO WARRANTY.
 It is free software, and you are welcome to redistribute it
 under certain conditions (GNU General Public License,
 see ~ABINIT/Infos/copyright or http://www.gnu.org/copyleft/gpl.txt).

 ABINIT is a project of the Universite Catholique de Louvain,
 Corning Inc. and other collaborators, see ~ABINIT/Infos/contributors.
 Please read ~ABINIT/Infos/acknowledgments.htm for suggested
 acknowledgments of the ABINIT effort.
 For more information, see http://www.abinit.org .

 Starting date : Sun 18 Aug 2002.
  
- input  file    -> slab_7Si_3Vac_2x_relax_2x1.in
- output file    -> t.out
- root for input  files -> ti
- root for output files -> to


 Symmetries : space group Pm m 2 (# 25); Bravais oP (primitive ortho.)
================================================================================
 Values of the parameters that define the memory need of the present run
   intxc =         0  ionmov =         3    iscf =         5     ixc =         1
  lmnmax =         2   lnmax =         2   mband =        30  mffmem =         1
   mgfft =        75   mkmem =        12 mpssoang=         3     mpw =      4058
  mqgrid =      1201   natom =        14    nfft =     81000    nkpt =        12
  nloalg =         4  nspden =         1 nspinor =         1  nsppol =         1
    nsym =         4  n1xccc =      2501   ntype =         1  occopt =         1
================================================================================
 This job should need less than                      41.924 Mbytes of memory.
 Rough estimation (10% accuracy) of disk space for files :
 WF disk file :     22.293 Mbytes ; DEN or POT disk file :      0.620 Mbytes.
================================================================================

 -outvars: echo values of preprocessed input variables --------
     acell    1.0216000000E+01  1.0216000000E+01  1.0216000000E+01 Bohr
       amu    2.80855000E+01
    diemac    1.20000000E+01
      ecut    1.00000000E+01 Hartree
    ionmov         3
       kpt    0.00000000E+00  1.25000000E-01  0.00000000E+00
              1.25000000E-01  0.00000000E+00  0.00000000E+00
              0.00000000E+00  3.75000000E-01  0.00000000E+00
              1.25000000E-01  2.50000000E-01  0.00000000E+00
              2.50000000E-01  1.25000000E-01  0.00000000E+00
              3.75000000E-01  0.00000000E+00  0.00000000E+00
              1.25000000E-01  5.00000000E-01  0.00000000E+00
              2.50000000E-01  3.75000000E-01  0.00000000E+00
              3.75000000E-01  2.50000000E-01  0.00000000E+00
              5.00000000E-01  1.25000000E-01  0.00000000E+00
              3.75000000E-01  5.00000000E-01  0.00000000E+00
              5.00000000E-01  3.75000000E-01  0.00000000E+00
   kptrlen    5.77904230E+01
    kptopt         1
  kptrlatt    8  0  0   4  4  0   0  0  1
     mkmem        12
     natom        14
     nband        30
     ngfft        24      45      75
      nkpt        12
     nstep        20
      nsym         4
     ntime        50
     ntype         1
       occ    2.000000  2.000000  2.000000  2.000000  2.000000  2.000000
              2.000000  2.000000  2.000000  2.000000  2.000000  2.000000
              2.000000  2.000000  2.000000  2.000000  2.000000  2.000000
              2.000000  2.000000  2.000000  2.000000  2.000000  2.000000
              2.000000  2.000000  2.000000  2.000000  0.000000  0.000000
     rprim    5.0000000000E-01 -5.0000000000E-01  0.0000000000E+00
              1.0000000000E+00  1.0000000000E+00  0.0000000000E+00
              0.0000000000E+00  0.0000000000E+00  2.5000000000E+00
    shiftk    0.00000000E+00  5.00000000E-01  0.00000000E+00
    symrel    1  0  0   0  1  0   0  0  1       1  0  0   0 -1  0   0  0  1
             -1  0  0   0 -1  0   0  0  1      -1  0  0   0  1  0   0  0  1
    toldfe    1.00000000E-06 Hartree
    tolmxf    1.00000000E-06
      type    1  1  1  1  1  1  1  1  1  1  1  1  1  1
       wtk      0.06250    0.06250    0.06250    0.12500    0.12500    0.06250
                0.06250    0.12500    0.12500    0.06250    0.06250    0.06250
    xangst    0.0000000000E+00  0.0000000000E+00  0.0000000000E+00
              1.3515185900E+00  1.3515185900E+00  1.3515185900E+00
              2.7030371800E+00  0.0000000000E+00  2.7030371800E+00
              4.0545557700E+00  1.3515185900E+00  4.0545557700E+00
              0.0000000000E+00  0.0000000000E+00  5.4060743600E+00
              1.3515185900E+00  1.3515185900E+00  6.7575929500E+00
              3.2322143883E+00  5.2917720830E-01  8.1091115400E+00
              2.7030371800E+00  2.7030371800E+00  0.0000000000E+00
              4.0545557700E+00  4.0545557700E+00  1.3515185900E+00
              5.4060743600E+00  2.7030371800E+00  2.7030371800E+00
              6.7575929500E+00  4.0545557700E+00  4.0545557700E+00
              2.7030371800E+00  2.7030371800E+00  5.4060743600E+00
              4.0545557700E+00  4.0545557700E+00  6.7575929500E+00
              4.8768971517E+00  2.1738599717E+00  8.1091115400E+00
     xcart    0.0000000000E+00  0.0000000000E+00  0.0000000000E+00
              2.5540000000E+00  2.5540000000E+00  2.5540000000E+00
              5.1080000000E+00  0.0000000000E+00  5.1080000000E+00
              7.6620000000E+00  2.5540000000E+00  7.6620000000E+00
              0.0000000000E+00  0.0000000000E+00  1.0216000000E+01
              2.5540000000E+00  2.5540000000E+00  1.2770000000E+01
              6.1080000000E+00  1.0000000000E+00  1.5324000000E+01
              5.1080000000E+00  5.1080000000E+00  0.0000000000E+00
              7.6620000000E+00  7.6620000000E+00  2.5540000000E+00
              1.0216000000E+01  5.1080000000E+00  5.1080000000E+00
              1.2770000000E+01  7.6620000000E+00  7.6620000000E+00
              5.1080000000E+00  5.1080000000E+00  1.0216000000E+01
              7.6620000000E+00  7.6620000000E+00  1.2770000000E+01
              9.2160000000E+00  4.1080000000E+00  1.5324000000E+01
      xred    0.0000000000E+00  0.0000000000E+00  0.0000000000E+00
              0.0000000000E+00  2.5000000000E-01  1.0000000000E-01
              5.0000000000E-01  2.5000000000E-01  2.0000000000E-01
              5.0000000000E-01  5.0000000000E-01  3.0000000000E-01
              0.0000000000E+00  0.0000000000E+00  4.0000000000E-01
              0.0000000000E+00  2.5000000000E-01  5.0000000000E-01
              5.0000000000E-01  3.4788566954E-01  6.0000000000E-01
              0.0000000000E+00  5.0000000000E-01  0.0000000000E+00
              0.0000000000E+00  7.5000000000E-01  1.0000000000E-01
              5.0000000000E-01  7.5000000000E-01  2.0000000000E-01
              5.0000000000E-01  1.0000000000E+00  3.0000000000E-01
              0.0000000000E+00  5.0000000000E-01  4.0000000000E-01
              0.0000000000E+00  7.5000000000E-01  5.0000000000E-01
              5.0000000000E-01  6.5211433046E-01  6.0000000000E-01
    zatnum    14.000

================================================================================

 chkinp: Checking input parameters for consistency.

================================================================================
== DATASET  1 ==================================================================

 Real(R)+Recip(G) space primitive vectors, cartesian coordinates (Bohr,Bohr^-1):
 R(1)=  5.1080000 -5.1080000  0.0000000  G(1)=  0.0978857 -0.0978857  0.0000000
 R(2)= 10.2160000 10.2160000  0.0000000  G(2)=  0.0489428  0.0489428  0.0000000
 R(3)=  0.0000000  0.0000000 25.5400000  G(3)=  0.0000000  0.0000000  0.0391543
 Unit cell volume ucvol=  2.6655244E+03 bohr^3

 getcut: wavevector=  0.0000  0.0000  0.0000  ngfft=  24  45  75
         ecut(hartree)=     10.000   => boxcut(ratio)=   2.03538
--- Pseudopotential description ------------------------------------------------
- pspini: atom type   1  psp file is Pseudo/14si.pspnc
- pspatm: opening atomic psp file    Pseudo/14si.pspnc
  Troullier-Martins psp for element  Si        Thu Oct 27 17:31:21 EDT 1994
  14.00000   4.00000    940714                zatom, zion, pspdat
    1    1    2    2      2001   0.00000      pspcod,pspxc,lmax,lloc,mmax,r2well
    0   5.907  14.692    1   2.0872718        l,e99.0,e99.9,nproj,rcpsp
   0.00000000   0.00000000   0.00000000   0.00000000     rms, ekb1, ekb2, epsatm
    1   2.617   4.181    1   2.0872718        l,e99.0,e99.9,nproj,rcpsp
   0.00000000   0.00000000   0.00000000   0.00000000     rms, ekb1, ekb2, epsatm
    2   0.000   0.000    0   2.0872718        l,e99.0,e99.9,nproj,rcpsp
   0.00000000   0.00000000   0.00000000   0.00000000     rms, ekb1, ekb2, epsatm
    1.80626423934776    0.22824404341771    1.17378968127746   rchrg,fchrg,qchrg
 pspatm: epsatm=    1.43386982
         --- l  ekb(1:nproj) -->
             0    3.287949
             1    1.849886
 pspatm: atomic psp has been read  and splines computed

   1.12415394E+03                                ecore*ucvol(ha*bohr**3)
--------------------------------------------------------------------------------

 newkpt: treating     30 bands with npw=    4021 for ikpt=   1
 newkpt: treating     30 bands with npw=    4009 for ikpt=   2
 newkpt: treating     30 bands with npw=    3998 for ikpt=   3
 newkpt: treating     30 bands with npw=    4007 for ikpt=   4
 newkpt: treating     30 bands with npw=    4024 for ikpt=   5
 newkpt: treating     30 bands with npw=    4030 for ikpt=   6
 newkpt: treating     30 bands with npw=    3994 for ikpt=   7
 newkpt: treating     30 bands with npw=    4034 for ikpt=   8
 newkpt: treating     30 bands with npw=    4024 for ikpt=   9
 newkpt: treating     30 bands with npw=    4030 for ikpt=  10
 newkpt: treating     30 bands with npw=    4044 for ikpt=  11
 newkpt: treating     30 bands with npw=    4058 for ikpt=  12
 
 setup2: Arith. and geom. avg. npw (full set) are    4022.625    4022.592

================================================================================

 BROYDEN STEP NUMBER   0  ------------------------------------------------------

     iter   Etot(hartree)      deltaE(h)  residm     vres2    diffor    maxfor
 ETOT  1  -61.642793296736    -6.164E+01 1.045E-02 1.126E+03 3.965E-02 3.965E-02
 ETOT  2  -61.750134627459    -1.073E-01 1.112E-03 7.320E+02 1.312E-02 2.653E-02
 ETOT  3  -61.786260938759    -3.613E-02 5.749E-04 3.461E+02 7.339E-03 3.340E-02
 ETOT  4  -61.583036458282     2.032E-01 2.322E-03 2.671E+03 1.733E-02 1.608E-02
 ETOT  5  -61.815435987349    -2.324E-01 2.530E-04 2.513E+01 1.561E-02 3.169E-02
 ETOT  6  -61.816440856615    -1.005E-03 3.506E-04 1.684E+01 5.245E-04 3.116E-02
 ETOT  7  -61.818362034309    -1.921E-03 1.535E-04 2.857E+01 1.202E-03 3.075E-02
 ETOT  8  -61.818755471401    -3.934E-04 4.256E-04 1.840E+01 1.446E-03 2.930E-02
 ETOT  9  -61.819033051032    -2.776E-04 7.187E-05 1.263E+01 5.978E-04 2.979E-02
 ETOT 10  -61.817698415152     1.335E-03 6.209E-05 3.792E+01 8.882E-04 2.985E-02
 ETOT 11  -61.819741317726    -2.043E-03 2.229E-05 1.102E+01 5.081E-04 2.958E-02
 ETOT 12  -61.819885978088    -1.447E-04 1.275E-05 1.034E+01 4.790E-04 2.972E-02
 ETOT 13  -61.820069453815    -1.835E-04 1.056E-05 7.408E+00 1.547E-04 2.967E-02
 ETOT 14  -61.820260042531    -1.906E-04 1.308E-05 3.453E+00 3.350E-04 2.957E-02
 ETOT 15  -61.820178465002     8.158E-05 1.192E-05 4.491E+00 4.148E-04 2.933E-02
 ETOT 16  -61.820462599394    -2.841E-04 1.311E-05 2.746E-01 3.801E-04 2.930E-02
 ETOT 17  -61.820497386328    -3.479E-05 1.141E-05 1.718E-01 2.463E-04 2.917E-02
 ETOT 18  -61.820509925863    -1.254E-05 1.101E-05 2.952E-02 9.222E-05 2.910E-02
 ETOT 19  -61.820510219266    -2.934E-07 9.606E-06 2.640E-02 9.439E-06 2.910E-02
 ETOT 20  -61.820509480962     7.383E-07 8.415E-06 5.737E-02 2.784E-05 2.911E-02

 At SCF step   20, etot is converged :
  for the second time, diff in etot=  7.383E-07 < toldfe=  1.000E-06

 Cartesian components of stress tensor (hartree/bohr^3)
  sigma(1 1)=  8.86646005E-05  sigma(3 2)=  0.00000000E+00
  sigma(2 2)=  8.86646005E-05  sigma(3 1)=  0.00000000E+00
  sigma(3 3)=  8.65209312E-05  sigma(2 1)=  5.39432378E-06
 
 Cartesian coordinates (bohr)
  0.00000000000000E+00  0.00000000000000E+00  0.00000000000000E+00
  2.55400000000000E+00  2.55400000000000E+00  2.55400000000000E+00
  5.10800000000000E+00  0.00000000000000E+00  5.10800000000000E+00
  7.66200000000000E+00  2.55400000000000E+00  7.66200000000000E+00
  0.00000000000000E+00  0.00000000000000E+00  1.02160000000000E+01
  2.55400000000000E+00  2.55400000000000E+00  1.27700000000000E+01
  6.10800000000000E+00  1.00000000000000E+00  1.53240000000000E+01
  5.10800000000000E+00  5.10800000000000E+00  0.00000000000000E+00
  7.66200000000000E+00  7.66200000000000E+00  2.55400000000000E+00
  1.02160000000000E+01  5.10800000000000E+00  5.10800000000000E+00
  1.27700000000000E+01  7.66200000000000E+00  7.66200000000000E+00
  5.10800000000000E+00  5.10800000000000E+00  1.02160000000000E+01
  7.66200000000000E+00  7.66200000000000E+00  1.27700000000000E+01
  9.21600000000000E+00  4.10800000000000E+00  1.53240000000000E+01
 Cartesian forces (hart/bohr); max,rms= 2.91135E-02 1.01416E-02 (free atoms)
  7.56279417191340E-23  7.56279417191340E-23  2.20406918758371E-03
 -5.77740761333697E-04 -5.77740761333697E-04 -1.06800676813416E-03
  2.38405310335129E-03  2.38405310335129E-03  1.56752167017272E-03
  7.56279417191340E-23  7.56279417191340E-23 -3.29226017137407E-03
  7.56279417191340E-23  7.56279417191340E-23  1.14466220262425E-02
  1.56486776949476E-02  1.56486776949476E-02  2.65446252017284E-02
 -2.36586696140100E-03 -2.36586696140100E-03 -2.91135409351207E-02
  7.56279417191340E-23  7.56279417191340E-23  1.25004307223227E-03
  5.77740761333697E-04  5.77740761333697E-04 -1.06800676813416E-03
 -2.38405310335129E-03 -2.38405310335129E-03  1.56752167017272E-03
  7.56279417191340E-23  7.56279417191340E-23 -2.00377902770493E-03
  7.56279417191340E-23  7.56279417191340E-23 -5.46589342427192E-03
 -1.56486776949476E-02 -1.56486776949476E-02  2.65446252017284E-02
  2.36586696140100E-03  2.36586696140100E-03 -2.91135409351207E-02
 
 At the end of Broyden step  0, total energy= -6.18205094809615E+01 Ha.


 BROYDEN STEP NUMBER   1  ------------------------------------------------------

     iter   Etot(hartree)      deltaE(h)  residm     vres2    diffor    maxfor
 ETOT  1  -61.824419632759    -6.182E+01 9.507E-06 9.973E-01 3.589E-03 2.695E-02
 ETOT  2  -61.824426915755    -7.283E-06 5.524E-06 1.462E+00 3.595E-04 2.682E-02
 ETOT  3  -61.824524939363    -9.802E-05 5.672E-06 2.476E-01 1.704E-04 2.690E-02
 ETOT  4  -61.824559264257    -3.432E-05 3.321E-06 1.395E-01 1.753E-04 2.673E-02
 ETOT  5  -61.824570603138    -1.134E-05 3.083E-06 2.024E-02 8.716E-05 2.666E-02
 ETOT  6  -61.824572781540    -2.178E-06 2.597E-06 1.628E-02 8.705E-05 2.667E-02
 ETOT  7  -61.824573815992    -1.034E-06 1.934E-06 7.997E-03 3.291E-05 2.666E-02
 ETOT  8  -61.824573982356    -1.664E-07 1.666E-06 6.487E-03 8.600E-06 2.666E-02
 ETOT  9  -61.824574012318    -2.996E-08 1.238E-06 7.017E-03 1.018E-05 2.666E-02

 At SCF step    9, etot is converged :
  for the second time, diff in etot=  2.996E-08 < toldfe=  1.000E-06

 Cartesian components of stress tensor (hartree/bohr^3)
  sigma(1 1)=  8.80068175E-05  sigma(3 2)=  0.00000000E+00
  sigma(2 2)=  8.80068175E-05  sigma(3 1)=  0.00000000E+00
  sigma(3 3)=  8.28610278E-05  sigma(2 1)=  8.40496450E-06
 
 Cartesian coordinates (bohr)
  0.00000000000000E+00  0.00000000000000E+00  2.25450272972234E-03
  2.55342225923867E+00  2.55342225923867E+00  2.55298242677400E+00
  5.11038405310335E+00  2.38405310335112E-03  5.10961795521231E+00
  7.66200000000000E+00  2.55400000000000E+00  7.65875817337076E+00
  0.00000000000000E+00  0.00000000000000E+00  1.02274970555684E+01
  2.56964867769495E+00  2.56964867769495E+00  1.27965950587439E+01
  6.10563413303860E+00  9.97634133038599E-01  1.52949368926070E+01
  5.10800000000000E+00  5.10800000000000E+00  1.30047661437090E-03
  7.66257774076133E+00  7.66257774076133E+00  2.55298242677400E+00
  1.02136159468966E+01  5.10561594689665E+00  5.10961795521231E+00
  1.27700000000000E+01  7.66200000000000E+00  7.66004665451443E+00
  5.10800000000000E+00  5.10800000000000E+00  1.02105845401179E+01
  7.64635132230505E+00  7.64635132230505E+00  1.27965950587439E+01
  9.21836586696140E+00  4.11036586696140E+00  1.52949368926070E+01
 Cartesian forces (hart/bohr); max,rms= 2.66583E-02 8.94029E-03 (free atoms)
  1.51255883438268E-23  1.51255883438268E-23  2.04450895248867E-03
 -4.84061970221357E-04 -4.84061970221357E-04 -6.79940771981716E-04
  2.01249237813864E-03  2.01249237813864E-03  1.12635494615749E-03
  1.51255883438268E-23  1.51255883438268E-23 -2.79971254549032E-03
  1.51255883438268E-23  1.51255883438268E-23  1.26300533486003E-02
  1.31661383760421E-02  1.31661383760421E-02  2.25971416814868E-02
 -4.56940162736734E-04 -4.56940162736734E-04 -2.66583150247993E-02
  1.51255883438268E-23  1.51255883438268E-23  1.13844022389005E-03
  4.84061970221357E-04  4.84061970221357E-04 -6.79940771981716E-04
 -2.01249237813864E-03 -2.01249237813864E-03  1.12635494615749E-03
  1.51255883438268E-23  1.51255883438268E-23 -6.51698613483231E-04
  1.51255883438268E-23  1.51255883438268E-23 -5.13207302773186E-03
 -1.31661383760421E-02 -1.31661383760421E-02  2.25971416814868E-02
  4.56940162736734E-04  4.56940162736734E-04 -2.66583150247993E-02
 
 At the end of Broyden step  1, total energy= -6.18245740123179E+01 Ha.


 BROYDEN STEP NUMBER   2  ------------------------------------------------------

     iter   Etot(hartree)      deltaE(h)  residm     vres2    diffor    maxfor
 ETOT  1  -61.826871365517    -6.183E+01 6.824E-05 1.157E+02 1.975E-02 1.456E-02
 ETOT  2  -61.834966550361    -8.095E-03 7.339E-05 1.988E+01 1.450E-03 1.404E-02
 ETOT  3  -61.836547020246    -1.580E-03 1.014E-05 1.274E+00 4.924E-04 1.418E-02
 ETOT  4  -61.836741630756    -1.946E-04 1.199E-05 2.670E+00 9.294E-04 1.451E-02
 ETOT  5  -61.836982928072    -2.413E-04 1.796E-05 3.612E-01 2.714E-04 1.442E-02
 ETOT  6  -61.837042780308    -5.985E-05 2.050E-06 2.151E-01 2.632E-04 1.451E-02
 ETOT  7  -61.837049250290    -6.470E-06 1.312E-05 1.569E-01 9.316E-05 1.454E-02
 ETOT  8  -61.837059622641    -1.037E-05 2.020E-06 8.389E-02 1.580E-04 1.451E-02
 ETOT  9  -61.837064918411    -5.296E-06 8.799E-06 4.415E-02 5.617E-05 1.454E-02
 ETOT 10  -61.837067661073    -2.743E-06 1.580E-06 2.327E-02 5.630E-05 1.453E-02
 ETOT 11  -61.837069456989    -1.796E-06 7.703E-06 6.359E-03 2.055E-05 1.453E-02
 ETOT 12  -61.837069719191    -2.622E-07 1.415E-06 2.220E-03 2.779E-05 1.452E-02
 ETOT 13  -61.837069796813    -7.762E-08 6.482E-06 1.540E-03 5.330E-06 1.452E-02

 At SCF step   13, etot is converged :
  for the second time, diff in etot=  7.762E-08 < toldfe=  1.000E-06

 Cartesian components of stress tensor (hartree/bohr^3)
  sigma(1 1)=  7.71397268E-05  sigma(3 2)=  0.00000000E+00
  sigma(2 2)=  7.71397268E-05  sigma(3 1)=  0.00000000E+00
  sigma(3 3)=  6.71674613E-05  sigma(2 1)=  2.41432992E-05
 
 Cartesian coordinates (bohr)
  0.00000000000000E+00  0.00000000000000E+00  1.40227239964149E-02
  2.55086394932028E+00  2.55086394932028E+00  2.54893487337591E+00
  5.12102635585325E+00  1.30263558532506E-02  5.11610013204595E+00
  7.66200000000000E+00  2.55400000000000E+00  7.64243540191160E+00
  0.00000000000000E+00  0.00000000000000E+00  1.03003884334234E+01
  2.63925518215279E+00  2.63925518215279E+00  1.29276415425961E+01
  6.10383964860639E+00  9.95839648606393E-01  1.51403790532545E+01
  5.10800000000000E+00  5.10800000000000E+00  7.82150543374111E-03
  7.66513605067972E+00  7.66513605067972E+00  2.54893487337591E+00
  1.02029736441467E+01  5.09497364414675E+00  5.11610013204595E+00
  1.27700000000000E+01  7.66200000000000E+00  7.65607161545012E+00
  5.10800000000000E+00  5.10800000000000E+00  1.01807812942697E+01
  7.57674481784721E+00  7.57674481784721E+00  1.29276415425961E+01
  9.22016035139361E+00  4.11216035139361E+00  1.51403790532545E+01
 Cartesian forces (hart/bohr); max,rms= 1.45181E-02 4.25175E-03 (free atoms)
  0.00000000000000E+00  0.00000000000000E+00  1.00417095618500E-03
  7.84147847806964E-05  7.84147847806964E-05  9.76617552983023E-04
 -3.34924723018564E-05 -3.34924723018564E-05 -5.02841991278426E-04
  0.00000000000000E+00  0.00000000000000E+00 -7.53894658684630E-04
  0.00000000000000E+00  0.00000000000000E+00  1.45180695658612E-02
  1.78479683122966E-03  1.78479683122966E-03  1.55950210699975E-03
  7.69763262909029E-03  7.69763262909029E-03 -1.12304774884203E-02
  0.00000000000000E+00  0.00000000000000E+00  1.62673023742619E-04
 -7.84147847806964E-05 -7.84147847806964E-05  9.76617552983023E-04
  3.34924723018564E-05  3.34924723018564E-05 -5.02841991278426E-04
  0.00000000000000E+00  0.00000000000000E+00  5.70441339459915E-03
  0.00000000000000E+00  0.00000000000000E+00 -2.24103264227148E-03
 -1.78479683122966E-03 -1.78479683122966E-03  1.55950210699975E-03
 -7.69763262909029E-03 -7.69763262909029E-03 -1.12304774884203E-02
 
 At the end of Broyden step  2, total energy= -6.18370697968135E+01 Ha.


 BROYDEN STEP NUMBER   3  ------------------------------------------------------

     iter   Etot(hartree)      deltaE(h)  residm     vres2    diffor    maxfor
 ETOT  1  -61.835714003594    -6.184E+01 2.269E-05 3.595E+01 6.982E-03 1.333E-02
 ETOT  2  -61.838284159333    -2.570E-03 1.448E-05 4.682E+00 1.127E-03 1.302E-02
 ETOT  3  -61.838668500874    -3.843E-04 1.050E-05 5.569E-01 2.493E-04 1.310E-02
 ETOT  4  -61.838712375889    -4.388E-05 7.075E-06 1.218E+00 9.272E-04 1.319E-02
 ETOT  5  -61.838846728193    -1.344E-04 3.198E-06 1.823E-01 4.636E-04 1.313E-02
 ETOT  6  -61.838849972375    -3.244E-06 7.870E-07 2.011E-01 7.864E-05 1.313E-02
 ETOT  7  -61.838872780412    -2.281E-05 9.349E-07 7.388E-02 1.529E-04 1.317E-02
 ETOT  8  -61.838874179267    -1.399E-06 2.960E-07 4.218E-02 1.566E-05 1.316E-02
 ETOT  9  -61.838878990328    -4.811E-06 4.163E-07 1.781E-02 7.328E-05 1.316E-02
 ETOT 10  -61.838880423933    -1.434E-06 1.738E-07 1.176E-02 4.989E-05 1.317E-02
 ETOT 11  -61.838881174572    -7.506E-07 2.077E-07 5.376E-03 4.311E-05 1.317E-02
 ETOT 12  -61.838881419796    -2.452E-07 1.010E-07 3.305E-03 2.146E-05 1.316E-02

 At SCF step   12, etot is converged :
  for the second time, diff in etot=  2.452E-07 < toldfe=  1.000E-06

 Cartesian components of stress tensor (hartree/bohr^3)
  sigma(1 1)=  6.78011667E-05  sigma(3 2)=  0.00000000E+00
  sigma(2 2)=  6.78011667E-05  sigma(3 1)=  0.00000000E+00
  sigma(3 3)=  6.06004361E-05  sigma(2 1)=  3.00299117E-05
 
 Cartesian coordinates (bohr)
  0.00000000000000E+00  0.00000000000000E+00  1.92765467555665E-02
  2.55015353121485E+00  2.55015353121485E+00  2.54884503313985E+00
  5.12437213090412E+00  1.63721309041166E-02  5.11767262323648E+00
  7.66200000000000E+00  2.55400000000000E+00  7.63597922585254E+00
  0.00000000000000E+00  0.00000000000000E+00  1.03434472739224E+01
  2.66385278664830E+00  2.66385278664830E+00  1.29735728075861E+01
  6.11321967396515E+00  1.00521967396515E+00  1.50741708749573E+01
  5.10800000000000E+00  5.10800000000000E+00  1.02158386107664E-02
  7.66584646878515E+00  7.66584646878515E+00  2.54884503313985E+00
  1.01996278690959E+01  5.09162786909588E+00  5.11767262323648E+00
  1.27700000000000E+01  7.66200000000000E+00  7.66212270351832E+00
  5.10800000000000E+00  5.10800000000000E+00  1.01679642908444E+01
  7.55214721335170E+00  7.55214721335170E+00  1.29735728075861E+01
  9.21078032603486E+00  4.10278032603486E+00  1.50741708749573E+01
 Cartesian forces (hart/bohr); max,rms= 1.31621E-02 4.21020E-03 (free atoms)
  0.00000000000000E+00  0.00000000000000E+00  3.88749392179772E-04
  1.79799773786499E-04  1.79799773786499E-04  1.64070847968656E-03
 -9.48003736296461E-04 -9.48003736296461E-04 -6.53216536527098E-04
  0.00000000000000E+00  0.00000000000000E+00 -1.87480656065246E-04
  0.00000000000000E+00  0.00000000000000E+00  1.31621403389613E-02
 -2.20768778715006E-03 -2.20768778715006E-03 -6.16319241423861E-03
  9.44252160878211E-03  9.44252160878211E-03 -4.79486762979931E-03
  0.00000000000000E+00  0.00000000000000E+00 -2.99442452913705E-04
 -1.79799773786499E-04 -1.79799773786499E-04  1.64070847968656E-03
  9.48003736296461E-04  9.48003736296461E-04 -6.53216536527098E-04
  0.00000000000000E+00  0.00000000000000E+00  7.86939523198813E-03
  0.00000000000000E+00  0.00000000000000E+00 -9.92225652393342E-04
  2.20768778715006E-03  2.20768778715006E-03 -6.16319241423861E-03
 -9.44252160878211E-03 -9.44252160878211E-03 -4.79486762979931E-03
 
 At the end of Broyden step  3, total energy= -6.18388814197960E+01 Ha.


 BROYDEN STEP NUMBER   4  ------------------------------------------------------

     iter   Etot(hartree)      deltaE(h)  residm     vres2    diffor    maxfor
 ETOT  1  -61.838443324503    -6.184E+01 5.775E-06 1.615E+01 2.271E-03 1.089E-02
 ETOT  2  -61.839730108142    -1.287E-03 1.498E-06 1.227E+00 1.182E-03 1.074E-02
 ETOT  3  -61.839837334476    -1.072E-04 1.679E-06 3.127E-01 2.122E-04 1.078E-02
 ETOT  4  -61.839920631876    -8.330E-05 3.879E-06 2.028E-01 6.206E-04 1.080E-02
 ETOT  5  -61.839942650189    -2.202E-05 6.079E-07 5.466E-02 2.219E-04 1.079E-02
 ETOT  6  -61.839950289965    -7.640E-06 4.054E-07 1.564E-02 9.407E-05 1.080E-02
 ETOT  7  -61.839950327804    -3.784E-08 2.451E-07 1.403E-02 4.289E-06 1.080E-02
 ETOT  8  -61.839952388799    -2.061E-06 1.622E-07 5.618E-03 4.380E-05 1.081E-02
 ETOT  9  -61.839953143458    -7.547E-07 1.557E-07 2.380E-03 4.232E-05 1.081E-02
 ETOT 10  -61.839953242844    -9.939E-08 8.045E-08 1.387E-03 1.775E-05 1.081E-02

 At SCF step   10, etot is converged :
  for the second time, diff in etot=  9.939E-08 < toldfe=  1.000E-06

 Cartesian components of stress tensor (hartree/bohr^3)
  sigma(1 1)=  6.12910089E-05  sigma(3 2)=  0.00000000E+00
  sigma(2 2)=  6.12910089E-05  sigma(3 1)=  0.00000000E+00
  sigma(3 3)=  5.80245972E-05  sigma(2 1)=  3.02322084E-05
 
 Cartesian coordinates (bohr)
  0.00000000000000E+00  0.00000000000000E+00  2.23165733924895E-02
  2.55002152448717E+00  2.55002152448717E+00  2.55082840352378E+00
  5.12477682287372E+00  1.67768228737208E-02  5.11776541914904E+00
  7.66200000000000E+00  2.55400000000000E+00  7.63249958784169E+00
  0.00000000000000E+00  0.00000000000000E+00  1.03804709282727E+01
  2.67311871058438E+00  2.67311871058438E+00  1.29886684791214E+01
  6.12923211062982E+00  1.02123211062982E+00  1.50357499077407E+01
  5.10800000000000E+00  5.10800000000000E+00  1.09999774337286E-02
  7.66597847551283E+00  7.66597847551283E+00  2.55082840352378E+00
  1.01992231771263E+01  5.09122317712628E+00  5.11776541914904E+00
  1.27700000000000E+01  7.66200000000000E+00  7.67479684768548E+00
  5.10800000000000E+00  5.10800000000000E+00  1.01604976414467E+01
  7.54288128941562E+00  7.54288128941562E+00  1.29886684791214E+01
  9.19476788937018E+00  4.08676788937018E+00  1.50357499077407E+01
 Cartesian forces (hart/bohr); max,rms= 1.08115E-02 3.98642E-03 (free atoms)
  0.00000000000000E+00  0.00000000000000E+00  1.15694654207409E-05
  1.32353462094369E-04  1.32353462094369E-04  1.82399880096979E-03
 -1.46190174872310E-03 -1.46190174872310E-03 -1.72507177404229E-04
  0.00000000000000E+00  0.00000000000000E+00 -2.19145061395646E-04
  0.00000000000000E+00  0.00000000000000E+00  1.08114911173309E-02
 -3.35414423491206E-03 -3.35414423491206E-03 -8.45565278717791E-03
  8.08460306975614E-03  8.08460306975614E-03 -2.27287426110984E-03
  0.00000000000000E+00  0.00000000000000E+00 -4.80401580661329E-04
 -1.32353462094369E-04 -1.32353462094369E-04  1.82399880096979E-03
  1.46190174872310E-03  1.46190174872310E-03 -1.72507177404229E-04
  0.00000000000000E+00  0.00000000000000E+00  8.64812632302761E-03
  0.00000000000000E+00  0.00000000000000E+00 -6.17569414277953E-04
  3.35414423491206E-03  3.35414423491206E-03 -8.45565278717791E-03
 -8.08460306975614E-03 -8.08460306975614E-03 -2.27287426110984E-03
 
 At the end of Broyden step  4, total energy= -6.18399532428436E+01 Ha.


 BROYDEN STEP NUMBER   5  ------------------------------------------------------

     iter   Etot(hartree)      deltaE(h)  residm     vres2    diffor    maxfor
 ETOT  1  -61.838075591138    -6.184E+01 2.540E-05 3.065E+01 6.208E-03 1.027E-02
 ETOT  2  -61.841218095927    -3.143E-03 1.811E-05 1.450E+00 2.455E-03 9.056E-03
 ETOT  3  -61.841261807036    -4.371E-05 6.050E-06 1.793E+00 3.693E-04 9.126E-03
 ETOT  4  -61.841701160982    -4.394E-04 1.973E-05 1.658E-01 8.105E-04 9.105E-03
 ETOT  5  -61.841717763776    -1.660E-05 7.092E-06 1.144E-01 2.749E-04 9.069E-03
 ETOT  6  -61.841736185978    -1.842E-05 7.441E-06 3.965E-02 2.018E-04 9.050E-03
 ETOT  7  -61.841741920455    -5.734E-06 3.400E-06 8.157E-03 2.026E-04 9.026E-03
 ETOT  8  -61.841742293991    -3.735E-07 4.129E-06 3.142E-03 3.817E-05 9.017E-03
 ETOT  9  -61.841742493081    -1.991E-07 2.091E-06 2.815E-03 3.019E-05 9.021E-03

 At SCF step    9, etot is converged :
  for the second time, diff in etot=  1.991E-07 < toldfe=  1.000E-06

 Cartesian components of stress tensor (hartree/bohr^3)
  sigma(1 1)=  4.84925694E-05  sigma(3 2)=  0.00000000E+00
  sigma(2 2)=  4.84925694E-05  sigma(3 1)=  0.00000000E+00
  sigma(3 3)=  5.46126495E-05  sigma(2 1)=  2.35408854E-05
 
 Cartesian coordinates (bohr)
  0.00000000000000E+00  0.00000000000000E+00  2.70857185620545E-02
  2.55011774498707E+00  2.55011774498707E+00  2.55797350515861E+00
  5.12205528036532E+00  1.40552803653198E-02  5.11772328227201E+00
  7.66200000000000E+00  2.55400000000000E+00  7.62651730207599E+00
  0.00000000000000E+00  0.00000000000000E+00  1.04617982440572E+01
  2.67995747382710E+00  2.67995747382710E+00  1.29934236716363E+01
  6.17139632039081E+00  1.06339632039081E+00  1.49709409914248E+01
  5.10800000000000E+00  5.10800000000000E+00  1.11577583849436E-02
  7.66588225501293E+00  7.66588225501293E+00  2.55797350515861E+00
  1.02019447196347E+01  5.09394471963468E+00  5.11772328227201E+00
  1.27700000000000E+01  7.66200000000000E+00  7.71394532152981E+00
  5.10800000000000E+00  5.10800000000000E+00  1.01475413966591E+01
  7.53604252617289E+00  7.53604252617289E+00  1.29934236716363E+01
  9.15260367960920E+00  4.04460367960919E+00  1.49709409914248E+01
 Cartesian forces (hart/bohr); max,rms= 9.02122E-03 2.75624E-03 (free atoms)
  2.26883825157402E-23  2.26883825157402E-23 -4.86541394933134E-04
 -1.24717627830465E-04 -1.24717627830465E-04  1.65154806478635E-03
 -2.22797788411874E-03 -2.22797788411874E-03  1.51853341532167E-03
  2.26883825157402E-23  2.26883825157402E-23 -8.88079561160766E-04
  2.26883825157402E-23  2.26883825157402E-23  4.43942099760317E-03
 -3.16316311922248E-03 -3.16316311922248E-03 -8.49229480360151E-03
  7.10770549926117E-04  7.10770549926117E-04 -1.91258539661400E-04
  2.26883825157402E-23  2.26883825157402E-23 -3.70355985419065E-04
  1.24717627830465E-04  1.24717627830465E-04  1.65154806478635E-03
  2.22797788411874E-03  2.22797788411874E-03  1.51853341532167E-03
  2.26883825157402E-23  2.26883825157402E-23  9.02122114479487E-03
  2.26883825157402E-23  2.26883825157402E-23 -6.88721474575295E-04
  3.16316311922248E-03  3.16316311922248E-03 -8.49229480360151E-03
 -7.10770549926117E-04 -7.10770549926117E-04 -1.91258539661400E-04
 
 At the end of Broyden step  5, total energy= -6.18417424930806E+01 Ha.


 BROYDEN STEP NUMBER   6  ------------------------------------------------------

     iter   Etot(hartree)      deltaE(h)  residm     vres2    diffor    maxfor
 ETOT  1  -61.842041779997    -6.184E+01 5.537E-06 2.755E+00 2.971E-03 8.144E-03
 ETOT  2  -61.842315863302    -2.741E-04 2.222E-06 2.996E-02 9.358E-04 7.979E-03
 ETOT  3  -61.842325947212    -1.008E-05 3.511E-06 1.141E-02 2.201E-04 7.994E-03
 ETOT  4  -61.842326527098    -5.799E-07 8.685E-07 9.461E-03 7.977E-05 7.991E-03
 ETOT  5  -61.842327673766    -1.147E-06 1.647E-06 2.558E-03 4.073E-05 7.985E-03
 ETOT  6  -61.842327915961    -2.422E-07 4.051E-07 7.234E-04 3.747E-05 7.987E-03
 ETOT  7  -61.842327940712    -2.475E-08 8.459E-07 4.563E-04 3.764E-06 7.988E-03

 At SCF step    7, etot is converged :
  for the second time, diff in etot=  2.475E-08 < toldfe=  1.000E-06

 Cartesian components of stress tensor (hartree/bohr^3)
  sigma(1 1)=  4.59854657E-05  sigma(3 2)=  0.00000000E+00
  sigma(2 2)=  4.59854657E-05  sigma(3 1)=  0.00000000E+00
  sigma(3 3)=  5.44049362E-05  sigma(2 1)=  1.79195079E-05
 
 Cartesian coordinates (bohr)
  0.00000000000000E+00  0.00000000000000E+00  2.73984583887108E-02
  2.55017793200020E+00  2.55017793200020E+00  2.56263735874273E+00
  5.11781159216324E+00  9.81159216324029E-03  5.11905153981835E+00
  7.66200000000000E+00  2.55400000000000E+00  7.62449451231477E+00
  0.00000000000000E+00  0.00000000000000E+00  1.04903379547733E+01
  2.67405700529124E+00  2.67405700529124E+00  1.29761567787334E+01
  6.18647386936125E+00  1.07847386936125E+00  1.49587144716085E+01
  5.10800000000000E+00  5.10800000000000E+00  1.03721781258595E-02
  7.66582206799980E+00  7.66582206799980E+00  2.56263735874273E+00
  1.02061884078368E+01  5.09818840783676E+00  5.11905153981835E+00
  1.27700000000000E+01  7.66200000000000E+00  7.73844842560136E+00
  5.10800000000000E+00  5.10800000000000E+00  1.01442351665999E+01
  7.54194299470876E+00  7.54194299470876E+00  1.29761567787334E+01
  9.13752613063875E+00  4.02952613063875E+00  1.49587144716085E+01
 Cartesian forces (hart/bohr); max,rms= 7.98792E-03 2.31974E-03 (free atoms)
 -3.02511766876536E-23 -3.02511766876536E-23 -2.85278032803579E-04
 -2.79813092468315E-04 -2.79813092468315E-04  1.24090491707574E-03
 -2.23540496848656E-03 -2.23540496848656E-03  2.41129596270974E-03
 -3.02511766876536E-23 -3.02511766876536E-23 -1.44471518145468E-03
 -3.02511766876536E-23 -3.02511766876536E-23  1.43801789356972E-03
 -1.33791158876906E-03 -1.33791158876906E-03 -5.51680141939284E-03
 -3.52599724049310E-03 -3.52599724049310E-03 -1.29115175851694E-03
 -3.02511766876536E-23 -3.02511766876536E-23 -1.99058429187982E-05
  2.79813092468315E-04  2.79813092468315E-04  1.24090491707574E-03
  2.23540496848656E-03  2.23540496848656E-03  2.41129596270974E-03
 -3.02511766876536E-23 -3.02511766876536E-23  7.98792342948275E-03
 -3.02511766876536E-23 -3.02511766876536E-23 -1.36453766962684E-03
  1.33791158876906E-03  1.33791158876906E-03 -5.51680141939284E-03
  3.52599724049310E-03  3.52599724049310E-03 -1.29115175851694E-03
 
 At the end of Broyden step  6, total energy= -6.18423279407118E+01 Ha.


 BROYDEN STEP NUMBER   7  ------------------------------------------------------

     iter   Etot(hartree)      deltaE(h)  residm     vres2    diffor    maxfor
 ETOT  1  -61.842659176230    -6.184E+01 3.859E-06 1.045E+00 3.269E-03 6.222E-03
 ETOT  2  -61.842750611708    -9.144E-05 7.312E-07 2.275E-02 5.736E-04 6.147E-03
 ETOT  3  -61.842755651296    -5.040E-06 2.343E-07 9.716E-03 2.271E-04 6.184E-03
 ETOT  4  -61.842756312794    -6.615E-07 1.994E-07 2.998E-03 2.509E-05 6.181E-03
 ETOT  5  -61.842756643174    -3.304E-07 9.585E-08 1.657E-03 3.559E-05 6.182E-03

 At SCF step    5, etot is converged :
  for the second time, diff in etot=  3.304E-07 < toldfe=  1.000E-06

 Cartesian components of stress tensor (hartree/bohr^3)
  sigma(1 1)=  4.67316148E-05  sigma(3 2)=  0.00000000E+00
  sigma(2 2)=  4.67316148E-05  sigma(3 1)=  0.00000000E+00
  sigma(3 3)=  5.33104790E-05  sigma(2 1)=  1.45570145E-05
 
 Cartesian coordinates (bohr)
  0.00000000000000E+00  0.00000000000000E+00  2.67183637902761E-02
  2.54991363491920E+00  2.54991363491920E+00  2.56734484223251E+00
  5.11164478414068E+00  3.64478414068181E-03  5.12307736952017E+00
  7.66200000000000E+00  2.55400000000000E+00  7.62189054795085E+00
  0.00000000000000E+00  0.00000000000000E+00  1.05060924533064E+01
  2.66583817342880E+00  2.66583817342880E+00  1.29522479105519E+01
  6.18991731609625E+00  1.08191731609625E+00  1.49563369770976E+01
  5.10800000000000E+00  5.10800000000000E+00  9.64820512666645E-03
  7.66608636508080E+00  7.66608636508080E+00  2.56734484223251E+00
  1.02123552158593E+01  5.10435521585932E+00  5.12307736952017E+00
  1.27700000000000E+01  7.66200000000000E+00  7.76469738707272E+00
  5.10800000000000E+00  5.10800000000000E+00  1.01415170325195E+01
  7.55016182657121E+00  7.55016182657121E+00  1.29522479105519E+01
  9.13408268390375E+00  4.02608268390375E+00  1.49563369770976E+01
 Cartesian forces (hart/bohr); max,rms= 6.18247E-03 2.26992E-03 (free atoms)
  0.00000000000000E+00  0.00000000000000E+00  6.93287599074080E-05
 -4.23341095607480E-04 -4.23341095607480E-04  9.22932423025823E-04
 -2.04363401235398E-03 -2.04363401235398E-03  2.92620472110359E-03
  0.00000000000000E+00  0.00000000000000E+00 -1.90641174952582E-03
  0.00000000000000E+00  0.00000000000000E+00 -5.69048756146544E-04
  7.04539970810515E-04  7.04539970810515E-04 -2.06187782083131E-03
 -5.17174653047904E-03 -5.17174653047904E-03 -2.77343520170917E-03
  0.00000000000000E+00  0.00000000000000E+00  4.17615357662198E-04
  4.23341095607480E-04  4.23341095607480E-04  9.22932423025823E-04
  2.04363401235398E-03  2.04363401235398E-03  2.92620472110359E-03
  0.00000000000000E+00  0.00000000000000E+00  6.18246819923308E-03
  0.00000000000000E+00  0.00000000000000E+00 -2.22160005430819E-03
 -7.04539970810515E-04 -7.04539970810515E-04 -2.06187782083131E-03
  5.17174653047904E-03  5.17174653047904E-03 -2.77343520170917E-03
 
 At the end of Broyden step  7, total energy= -6.18427566431744E+01 Ha.


 BROYDEN STEP NUMBER   8  ------------------------------------------------------

     iter   Etot(hartree)      deltaE(h)  residm     vres2    diffor    maxfor
 ETOT  1  -61.842861538955    -6.184E+01 3.004E-06 2.981E+00 2.731E-03 4.792E-03
 ETOT  2  -61.843075262585    -2.137E-04 1.325E-06 5.017E-01 1.689E-03 5.048E-03
 ETOT  3  -61.843146125844    -7.086E-05 3.581E-07 2.040E-01 3.111E-04 4.998E-03
 ETOT  4  -61.843149747235    -3.621E-06 2.628E-07 2.668E-01 1.073E-04 4.982E-03
 ETOT  5  -61.843182838208    -3.309E-05 1.717E-06 3.967E-02 4.620E-04 4.855E-03
 ETOT  6  -61.843187459349    -4.621E-06 1.434E-07 1.343E-02 2.928E-04 4.895E-03
 ETOT  7  -61.843188885645    -1.426E-06 1.302E-07 8.452E-03 1.837E-04 4.854E-03
 ETOT  8  -61.843189556983    -6.713E-07 1.733E-08 2.361E-03 9.418E-05 4.862E-03
 ETOT  9  -61.843189599036    -4.205E-08 2.529E-08 2.389E-03 1.728E-05 4.856E-03

 At SCF step    9, etot is converged :
  for the second time, diff in etot=  4.205E-08 < toldfe=  1.000E-06

 Cartesian components of stress tensor (hartree/bohr^3)
  sigma(1 1)=  4.74436267E-05  sigma(3 2)=  0.00000000E+00
  sigma(2 2)=  4.74436267E-05  sigma(3 1)=  0.00000000E+00
  sigma(3 3)=  5.06727359E-05  sigma(2 1)=  1.34877538E-05
 
 Cartesian coordinates (bohr)
  0.00000000000000E+00  0.00000000000000E+00  2.65124103528259E-02
  2.54898251656465E+00  2.54898251656465E+00  2.57353574510439E+00
  5.10268825671153E+00 -5.31174328847140E-03  5.13140660344345E+00
  7.66200000000000E+00  2.55400000000000E+00  7.61605086221307E+00
  0.00000000000000E+00  0.00000000000000E+00  1.05246583003050E+01
  2.66018950826981E+00  2.66018950826981E+00  1.29280373200063E+01
  6.18750313279846E+00  1.07950313279846E+00  1.49452551915833E+01
  5.10800000000000E+00  5.10800000000000E+00  9.68414610769570E-03
  7.66701748343535E+00  7.66701748343535E+00  2.57353574510439E+00
  1.02213117432885E+01  5.11331174328847E+00  5.13140660344345E+00
  1.27700000000000E+01  7.66200000000000E+00  7.80067012985400E+00
  5.10800000000000E+00  5.10800000000000E+00  1.01345823518251E+01
  7.55581049173018E+00  7.55581049173018E+00  1.29280373200063E+01
  9.13649686720154E+00  4.02849686720154E+00  1.49452551915833E+01
 Cartesian forces (hart/bohr); max,rms= 4.85646E-03 2.23738E-03 (free atoms)
  0.00000000000000E+00  0.00000000000000E+00  3.64192454809948E-04
 -5.56675839399922E-04 -5.56675839399922E-04  7.77015057263457E-04
 -1.84853197496034E-03 -1.84853197496034E-03  3.13463104534063E-03
  0.00000000000000E+00  0.00000000000000E+00 -2.25844260475207E-03
  0.00000000000000E+00  0.00000000000000E+00 -2.30661133098238E-03
  2.25257889257777E-03  2.25257889257777E-03  7.20140558401648E-04
 -4.85645640017256E-03 -4.85645640017256E-03 -3.40925640779769E-03
  0.00000000000000E+00  0.00000000000000E+00  9.93913435151513E-04
  5.56675839399922E-04  5.56675839399922E-04  7.77015057263457E-04
  1.84853197496034E-03  1.84853197496034E-03  3.13463104534063E-03
  0.00000000000000E+00  0.00000000000000E+00  3.82533214873116E-03
  0.00000000000000E+00  0.00000000000000E+00 -3.06344460937426E-03
 -2.25257889257777E-03 -2.25257889257777E-03  7.20140558401648E-04
  4.85645640017256E-03  4.85645640017256E-03 -3.40925640779769E-03
 
 At the end of Broyden step  8, total energy= -6.18431895990363E+01 Ha.


 BROYDEN STEP NUMBER   9  ------------------------------------------------------

     iter   Etot(hartree)      deltaE(h)  residm     vres2    diffor    maxfor
 ETOT  1  -61.841824293430    -6.184E+01 5.877E-06 1.460E+01 2.442E-03 4.306E-03
 ETOT  2  -61.842318984168    -4.947E-04 8.006E-06 7.250E+00 2.350E-03 4.177E-03
 ETOT  3  -61.843365890018    -1.047E-03 4.638E-06 1.638E+00 6.568E-04 4.016E-03
 ETOT  4  -61.843537393345    -1.715E-04 1.353E-05 1.886E+00 6.534E-04 3.945E-03
 ETOT  5  -61.843706521470    -1.691E-04 1.650E-06 1.167E-01 4.064E-04 3.923E-03
 ETOT  6  -61.843710824666    -4.303E-06 5.948E-07 8.789E-02 4.829E-04 3.956E-03
 ETOT  7  -61.843663426170     4.740E-05 1.170E-06 3.120E-01 7.272E-04 3.960E-03
 ETOT  8  -61.843720613629    -5.719E-05 1.096E-07 3.433E-02 5.420E-04 3.940E-03
 ETOT  9  -61.843722072022    -1.458E-06 1.158E-07 2.463E-02 1.479E-04 3.929E-03
 ETOT 10  -61.843722337285    -2.653E-07 8.017E-09 2.418E-02 4.258E-05 3.932E-03
 ETOT 11  -61.843724046359    -1.709E-06 7.278E-09 1.399E-02 3.688E-05 3.937E-03
 ETOT 12  -61.843724381735    -3.354E-07 1.728E-08 1.223E-02 2.714E-05 3.937E-03
 ETOT 13  -61.843724879063    -4.973E-07 2.444E-09 6.611E-03 3.255E-05 3.936E-03

 At SCF step   13, etot is converged :
  for the second time, diff in etot=  4.973E-07 < toldfe=  1.000E-06

 Cartesian components of stress tensor (hartree/bohr^3)
  sigma(1 1)=  4.67310125E-05  sigma(3 2)=  0.00000000E+00
  sigma(2 2)=  4.67310125E-05  sigma(3 1)=  0.00000000E+00
  sigma(3 3)=  4.49144615E-05  sigma(2 1)=  1.51235146E-05
 
 Cartesian coordinates (bohr)
  0.00000000000000E+00  0.00000000000000E+00  2.74519259306296E-02
  2.54678486361534E+00  2.54678486361534E+00  2.58328421446722E+00
  5.08826278860193E+00 -1.97372113980654E-02  5.14742979865005E+00
  7.66200000000000E+00  2.55400000000000E+00  7.60382784220532E+00
  0.00000000000000E+00  0.00000000000000E+00  1.05534571158973E+01
  2.65912545859039E+00  2.65912545859039E+00  1.29025236613686E+01
  6.18009263298198E+00  1.07209263298198E+00  1.49154646224396E+01
  5.10800000000000E+00  5.10800000000000E+00  1.15660527098139E-02
  7.66921513638467E+00  7.66921513638467E+00  2.58328421446722E+00
  1.02357372113981E+01  5.12773721139807E+00  5.14742979865005E+00
  1.27700000000000E+01  7.66200000000000E+00  7.85609917355546E+00
  5.10800000000000E+00  5.10800000000000E+00  1.01187057164231E+01
  7.55687454140961E+00  7.55687454140961E+00  1.29025236613686E+01
  9.14390736701801E+00  4.03590736701802E+00  1.49154646224396E+01
 Cartesian forces (hart/bohr); max,rms= 3.93574E-03 1.97957E-03 (free atoms)
  0.00000000000000E+00  0.00000000000000E+00  5.64179079035191E-04
 -6.84136875945238E-04 -6.84136875945238E-04  8.36683708165110E-04
 -1.65295845747069E-03 -1.65295845747069E-03  2.93053797829957E-03
  0.00000000000000E+00  0.00000000000000E+00 -2.52454829432720E-03
  0.00000000000000E+00  0.00000000000000E+00 -3.93574374360075E-03
  3.10070698144124E-03  3.10070698144124E-03  2.54264698128169E-03
 -2.56922610564205E-03 -2.56922610564205E-03 -2.67785538977861E-03
  0.00000000000000E+00  0.00000000000000E+00  1.90963345474385E-03
  6.84136875945238E-04  6.84136875945238E-04  8.36683708165110E-04
  1.65295845747069E-03  1.65295845747069E-03  2.93053797829957E-03
  0.00000000000000E+00  0.00000000000000E+00  5.83368512317674E-04
  0.00000000000000E+00  0.00000000000000E+00 -3.86091556410427E-03
 -3.10070698144124E-03 -3.10070698144124E-03  2.54264698128169E-03
  2.56922610564205E-03  2.56922610564205E-03 -2.67785538977861E-03
 
 At the end of Broyden step  9, total energy= -6.18437248790634E+01 Ha.


 BROYDEN STEP NUMBER  10  ------------------------------------------------------

     iter   Etot(hartree)      deltaE(h)  residm     vres2    diffor    maxfor
 ETOT  1  -61.843114642955    -6.184E+01 4.530E-06 8.280E+00 2.817E-03 4.396E-03
 ETOT  2  -61.843528714751    -4.141E-04 2.941E-06 2.600E+00 1.614E-03 4.350E-03
 ETOT  3  -61.843901587860    -3.729E-04 9.119E-07 8.274E-01 5.095E-04 4.286E-03
 ETOT  4  -61.843963696159    -6.211E-05 2.058E-06 1.138E+00 3.976E-04 4.244E-03
 ETOT  5  -61.844047052421    -8.336E-05 1.269E-06 3.073E-01 5.652E-04 4.146E-03
 ETOT  6  -61.844065202452    -1.815E-05 3.081E-07 1.817E-01 4.574E-04 4.197E-03
 ETOT  7  -61.844068167659    -2.965E-06 5.306E-08 1.338E-01 3.594E-05 4.204E-03
 ETOT  8  -61.844031932485     3.624E-05 6.489E-07 3.255E-01 5.241E-04 4.118E-03
 ETOT  9  -61.844089046677    -5.711E-05 6.461E-08 3.284E-02 3.722E-04 4.168E-03
 ETOT 10  -61.844090422233    -1.376E-06 5.113E-09 1.845E-02 7.188E-05 4.155E-03
 ETOT 11  -61.844092280325    -1.858E-06 8.075E-09 1.103E-02 6.702E-05 4.150E-03
 ETOT 12  -61.844093087783    -8.075E-07 4.263E-09 6.376E-03 5.546E-05 4.134E-03
 ETOT 13  -61.844093336859    -2.491E-07 1.046E-09 3.818E-03 1.245E-05 4.136E-03

 At SCF step   13, etot is converged :
  for the second time, diff in etot=  2.491E-07 < toldfe=  1.000E-06

 Cartesian components of stress tensor (hartree/bohr^3)
  sigma(1 1)=  4.42262976E-05  sigma(3 2)=  0.00000000E+00
  sigma(2 2)=  4.42262976E-05  sigma(3 1)=  0.00000000E+00
  sigma(3 3)=  3.94055839E-05  sigma(2 1)=  1.93365458E-05
 
 Cartesian coordinates (bohr)
  0.00000000000000E+00  0.00000000000000E+00  2.94592106340949E-02
  2.54398246721420E+00  2.54398246721420E+00  2.59236120291115E+00
  5.07476969427366E+00 -3.32303057263430E-02  5.16443053040707E+00
  7.66200000000000E+00  2.55400000000000E+00  7.58972961933396E+00
  0.00000000000000E+00  0.00000000000000E+00  1.05766494062341E+01
  2.66518455820867E+00  2.66518455820867E+00  1.28908311810181E+01
  6.17229581536745E+00  1.06429581536745E+00  1.48798786747331E+01
  5.10800000000000E+00  5.10800000000000E+00  1.59976148776492E-02
  7.67201753278580E+00  7.67201753278580E+00  2.59236120291115E+00
  1.02492303057263E+01  5.14123030572635E+00  5.16443053040707E+00
  1.27700000000000E+01  7.66200000000000E+00  7.90218277438993E+00
  5.10800000000000E+00  5.10800000000000E+00  1.00991717658045E+01
  7.55081544179133E+00  7.55081544179133E+00  1.28908311810181E+01
  9.15170418463255E+00  4.04370418463255E+00  1.48798786747331E+01
 Cartesian forces (hart/bohr); max,rms= 4.13596E-03 1.57033E-03 (free atoms)
 -5.67209562893505E-24 -5.67209562893505E-24  7.24694153477113E-04
 -7.16702483890577E-04 -7.16702483890577E-04  1.01713921636578E-03
 -1.46813584143044E-03 -1.46813584143044E-03  2.23371280368613E-03
 -5.67209562893505E-24 -5.67209562893505E-24 -2.53645852003839E-03
 -5.67209562893505E-24 -5.67209562893505E-24 -4.13596000016810E-03
  2.39352206917907E-03  2.39352206917907E-03  1.85964423867027E-03
  3.73168426579265E-04  3.73168426579265E-04 -6.63030202002226E-04
 -5.67209562893505E-24 -5.67209562893505E-24  2.67806005674303E-03
  7.16702483890577E-04  7.16702483890577E-04  1.01713921636578E-03
  1.46813584143044E-03  1.46813584143044E-03  2.23371280368613E-03
 -5.67209562893505E-24 -5.67209562893505E-24 -1.69072863629769E-03
 -5.67209562893505E-24 -5.67209562893505E-24 -3.93453916715586E-03
 -2.39352206917907E-03 -2.39352206917907E-03  1.85964423867027E-03
 -3.73168426579265E-04 -3.73168426579265E-04 -6.63030202002226E-04
 
 At the end of Broyden step 10, total energy= -6.18440933368587E+01 Ha.


 BROYDEN STEP NUMBER  11  ------------------------------------------------------

     iter   Etot(hartree)      deltaE(h)  residm     vres2    diffor    maxfor
 ETOT  1  -61.844050728892    -6.184E+01 7.940E-07 1.599E+00 1.514E-03 3.641E-03
 ETOT  2  -61.844134758605    -8.403E-05 5.159E-07 5.447E-01 8.422E-04 3.334E-03
 ETOT  3  -61.844232573343    -9.781E-05 1.494E-07 1.196E-01 3.243E-04 3.447E-03
 ETOT  4  -61.844239758253    -7.185E-06 1.933E-07 1.598E-01 1.165E-04 3.490E-03
 ETOT  5  -61.844258056685    -1.830E-05 1.595E-07 3.639E-02 1.674E-04 3.450E-03
 ETOT  6  -61.844262039012    -3.982E-06 1.609E-07 8.164E-03 6.934E-05 3.406E-03
 ETOT  7  -61.844262809594    -7.706E-07 2.759E-08 4.803E-03 5.607E-05 3.403E-03
 ETOT  8  -61.844263104026    -2.944E-07 1.458E-08 2.273E-03 4.825E-05 3.385E-03

 At SCF step    8, etot is converged :
  for the second time, diff in etot=  2.944E-07 < toldfe=  1.000E-06

 Cartesian components of stress tensor (hartree/bohr^3)
  sigma(1 1)=  4.21005978E-05  sigma(3 2)=  0.00000000E+00
  sigma(2 2)=  4.21005978E-05  sigma(3 1)=  0.00000000E+00
  sigma(3 3)=  3.65000759E-05  sigma(2 1)=  2.24055423E-05
 
 Cartesian coordinates (bohr)
  0.00000000000000E+00  0.00000000000000E+00  3.14549955355478E-02
  2.54179980520880E+00  2.54179980520880E+00  2.59725615710035E+00
  5.06753539961112E+00 -4.04646003888843E-02  5.17456532577772E+00
  7.66200000000000E+00  2.55400000000000E+00  7.58015753572155E+00
  0.00000000000000E+00  0.00000000000000E+00  1.05815277363909E+01
  2.67240766730461E+00  2.67240766730461E+00  1.28916924294796E+01
  6.16886139837241E+00  1.06086139837241E+00  1.48612014872072E+01
  5.10800000000000E+00  5.10800000000000E+00  2.15533113212514E-02
  7.67420019479120E+00  7.67420019479120E+00  2.59725615710035E+00
  1.02564646003889E+01  5.14846460038888E+00  5.17456532577772E+00
  1.27700000000000E+01  7.66200000000000E+00  7.91836804239807E+00
  5.10800000000000E+00  5.10800000000000E+00  1.00853268220444E+01
  7.54359233269539E+00  7.54359233269539E+00  1.28916924294796E+01
  9.15513860162759E+00  4.04713860162759E+00  1.48612014872072E+01
 Cartesian forces (hart/bohr); max,rms= 3.38531E-03 1.35745E-03 (free atoms)
  0.00000000000000E+00  0.00000000000000E+00  7.14170692486704E-04
 -6.86806433970815E-04 -6.86806433970815E-04  1.23231874532801E-03
 -1.26940237963979E-03 -1.26940237963979E-03  1.38914226591225E-03
  0.00000000000000E+00  0.00000000000000E+00 -2.35220085708142E-03
  0.00000000000000E+00  0.00000000000000E+00 -3.04435159803221E-03
  1.17777925354775E-03  1.17777925354775E-03  1.64280995355287E-04
  1.94857070365209E-03  1.94857070365209E-03  8.37539379167149E-04
  0.00000000000000E+00  0.00000000000000E+00  2.94646092343341E-03
  6.86806433970815E-04  6.86806433970815E-04  1.23231874532801E-03
  1.26940237963979E-03  1.26940237963979E-03  1.38914226591225E-03
  0.00000000000000E+00  0.00000000000000E+00 -2.12533277678496E-03
  0.00000000000000E+00  0.00000000000000E+00 -3.38530915554691E-03
 -1.17777925354775E-03 -1.17777925354775E-03  1.64280995355287E-04
 -1.94857070365209E-03 -1.94857070365209E-03  8.37539379167149E-04
 
 At the end of Broyden step 11, total energy= -6.18442631040263E+01 Ha.


 BROYDEN STEP NUMBER  12  ------------------------------------------------------

     iter   Etot(hartree)      deltaE(h)  residm     vres2    diffor    maxfor
 ETOT  1  -61.844130408950    -6.184E+01 4.489E-07 1.722E+00 1.475E-03 3.642E-03
 ETOT  2  -61.844155442222    -2.503E-05 1.118E-06 1.143E+00 1.082E-03 2.560E-03
 ETOT  3  -61.844369740264    -2.143E-04 3.392E-07 1.085E-01 4.195E-04 2.886E-03
 ETOT  4  -61.844383211733    -1.347E-05 5.723E-07 1.236E-01 1.747E-04 3.061E-03
 ETOT  5  -61.844395845179    -1.263E-05 6.137E-08 7.115E-03 8.422E-05 3.089E-03
 ETOT  6  -61.844396435344    -5.902E-07 1.022E-07 3.013E-03 2.733E-05 3.117E-03
 ETOT  7  -61.844396916946    -4.816E-07 1.072E-08 1.641E-03 2.494E-05 3.104E-03

 At SCF step    7, etot is converged :
  for the second time, diff in etot=  4.816E-07 < toldfe=  1.000E-06

 Cartesian components of stress tensor (hartree/bohr^3)
  sigma(1 1)=  4.02848312E-05  sigma(3 2)=  0.00000000E+00
  sigma(2 2)=  4.02848312E-05  sigma(3 1)=  0.00000000E+00
  sigma(3 3)=  3.41756180E-05  sigma(2 1)=  2.39553220E-05
 
 Cartesian coordinates (bohr)
  0.00000000000000E+00  0.00000000000000E+00  3.37758954093597E-02
  2.53933068455686E+00  2.53933068455686E+00  2.60205634271609E+00
  5.06109601150963E+00 -4.69039884903690E-02  5.18315559043644E+00
  7.66200000000000E+00  2.55400000000000E+00  7.57047562637105E+00
  0.00000000000000E+00  0.00000000000000E+00  1.05785694114181E+01
  2.67911005812759E+00  2.67911005812759E+00  1.28931602433621E+01
  6.16853630443501E+00  1.06053630443501E+00  1.48510817429714E+01
  5.10800000000000E+00  5.10800000000000E+00  2.96229735767411E-02
  7.67666931544314E+00  7.67666931544314E+00  2.60205634271609E+00
  1.02629039884904E+01  5.15490398849037E+00  5.18315559043644E+00
  1.27700000000000E+01  7.66200000000000E+00  7.92454229119478E+00
  5.10800000000000E+00  5.10800000000000E+00  1.00714474910204E+01
  7.53688994187241E+00  7.53688994187241E+00  1.28931602433621E+01
  9.15546369556500E+00  4.04746369556500E+00  1.48510817429714E+01
 Cartesian forces (hart/bohr); max,rms= 3.10418E-03 1.29979E-03 (free atoms)
  0.00000000000000E+00  0.00000000000000E+00  6.01018952869349E-04
 -6.20034749420826E-04 -6.20034749420826E-04  1.40312514369601E-03
 -9.58112726999745E-04 -9.58112726999745E-04  4.07245822381610E-04
  0.00000000000000E+00  0.00000000000000E+00 -2.09356722512456E-03
  0.00000000000000E+00  0.00000000000000E+00 -1.51297046521673E-03
  1.65103362270119E-04  1.65103362270119E-04 -1.34109114860858E-03
  2.50848318355860E-03  2.50848318355860E-03  1.70411345705966E-03
  0.00000000000000E+00  0.00000000000000E+00  3.10417765749830E-03
  6.20034749420826E-04  6.20034749420826E-04  1.40312514369601E-03
  9.58112726999745E-04  9.58112726999745E-04  4.07245822381610E-04
  0.00000000000000E+00  0.00000000000000E+00 -1.87324129611153E-03
  0.00000000000000E+00  0.00000000000000E+00 -2.57220417297224E-03
 -1.65103362270119E-04 -1.65103362270119E-04 -1.34109114860858E-03
 -2.50848318355860E-03 -2.50848318355860E-03  1.70411345705966E-03
 
 At the end of Broyden step 12, total energy= -6.18443969169455E+01 Ha.


 BROYDEN STEP NUMBER  13  ------------------------------------------------------

     iter   Etot(hartree)      deltaE(h)  residm     vres2    diffor    maxfor
 ETOT  1  -61.844509142356    -6.184E+01 7.689E-07 4.059E-01 1.978E-03 3.458E-03
 ETOT  2  -61.844505530890     3.611E-06 2.654E-07 3.384E-01 4.832E-04 2.975E-03
 ETOT  3  -61.844553748730    -4.822E-05 8.479E-08 1.231E-01 2.317E-04 3.207E-03
 ETOT  4  -61.844563434557    -9.686E-06 2.032E-07 2.105E-02 1.344E-04 3.335E-03
 ETOT  5  -61.844567354681    -3.920E-06 4.903E-08 2.837E-03 7.286E-05 3.263E-03
 ETOT  6  -61.844567718014    -3.633E-07 7.078E-09 2.554E-03 1.309E-05 3.253E-03
 ETOT  7  -61.844567892641    -1.746E-07 1.227E-08 7.194E-04 1.099E-05 3.263E-03

 At SCF step    7, etot is converged :
  for the second time, diff in etot=  1.746E-07 < toldfe=  1.000E-06

 Cartesian components of stress tensor (hartree/bohr^3)
  sigma(1 1)=  3.80848926E-05  sigma(3 2)=  0.00000000E+00
  sigma(2 2)=  3.80848926E-05  sigma(3 1)=  0.00000000E+00
  sigma(3 3)=  3.14171859E-05  sigma(2 1)=  2.40295800E-05
 
 Cartesian coordinates (bohr)
  0.00000000000000E+00  0.00000000000000E+00  3.74715692736756E-02
  2.53518521402543E+00  2.53518521402543E+00  2.61062179742675E+00
  5.05090995110532E+00 -5.70900488946827E-02  5.19490872686361E+00
  7.66200000000000E+00  2.55400000000000E+00  7.55488293021001E+00
  0.00000000000000E+00  0.00000000000000E+00  1.05711404555206E+01
  2.68685831640398E+00  2.68685831640398E+00  1.28901089495745E+01
  6.17130864880219E+00  1.06330864880219E+00  1.48433572924819E+01
  5.10800000000000E+00  5.10800000000000E+00  4.48176626832615E-02
  7.68081478597457E+00  7.68081478597457E+00  2.61062179742675E+00
  1.02730900488947E+01  5.16509004889468E+00  5.19490872686361E+00
  1.27700000000000E+01  7.66200000000000E+00  7.93047891671813E+00
  5.10800000000000E+00  5.10800000000000E+00  1.00499836502559E+01
  7.52914168359602E+00  7.52914168359602E+00  1.28901089495745E+01
  9.15269135119781E+00  4.04469135119781E+00  1.48433572924819E+01
 Cartesian forces (hart/bohr); max,rms= 3.26279E-03 1.26520E-03 (free atoms)
  0.00000000000000E+00  0.00000000000000E+00  4.58153343031715E-04
 -5.64222993091291E-04 -5.64222993091291E-04  1.48996841291360E-03
 -3.29042498907752E-04 -3.29042498907752E-04 -9.87695422324555E-04
  0.00000000000000E+00  0.00000000000000E+00 -1.73741314066677E-03
  0.00000000000000E+00  0.00000000000000E+00  5.68848442862985E-04
 -6.58303247951397E-04 -6.58303247951397E-04 -2.55183434643743E-03
  2.11607121123029E-03  2.11607121123029E-03  2.09439495914863E-03
  0.00000000000000E+00  0.00000000000000E+00  3.26278860632927E-03
  5.64222993091291E-04  5.64222993091291E-04  1.48996841291360E-03
  3.29042498907752E-04  3.29042498907752E-04 -9.87695422324555E-04
  0.00000000000000E+00  0.00000000000000E+00 -1.27850295519767E-03
  0.00000000000000E+00  0.00000000000000E+00 -1.36354150296002E-03
  6.58303247951397E-04  6.58303247951397E-04 -2.55183434643743E-03
 -2.11607121123029E-03 -2.11607121123029E-03  2.09439495914863E-03
 
 At the end of Broyden step 13, total energy= -6.18445678926407E+01 Ha.


 BROYDEN STEP NUMBER  14  ------------------------------------------------------

     iter   Etot(hartree)      deltaE(h)  residm     vres2    diffor    maxfor
 ETOT  1  -61.844676309688    -6.184E+01 9.826E-07 4.795E-01 1.701E-03 3.521E-03
 ETOT  2  -61.844700986828    -2.468E-05 2.771E-07 1.864E-01 3.325E-04 3.189E-03
 ETOT  3  -61.844715076191    -1.409E-05 7.412E-08 1.583E-01 1.333E-04 3.322E-03
 ETOT  4  -61.844724743047    -9.667E-06 2.230E-07 3.423E-02 1.734E-04 3.477E-03
 ETOT  5  -61.844731367065    -6.624E-06 5.255E-08 3.886E-03 1.109E-04 3.366E-03
 ETOT  6  -61.844731783040    -4.160E-07 1.068E-08 3.412E-03 1.790E-05 3.384E-03
 ETOT  7  -61.844731832415    -4.938E-08 1.453E-08 2.037E-03 4.808E-06 3.386E-03

 At SCF step    7, etot is converged :
  for the second time, diff in etot=  4.938E-08 < toldfe=  1.000E-06

 Cartesian components of stress tensor (hartree/bohr^3)
  sigma(1 1)=  3.61601579E-05  sigma(3 2)=  0.00000000E+00
  sigma(2 2)=  3.61601579E-05  sigma(3 1)=  0.00000000E+00
  sigma(3 3)=  2.79543683E-05  sigma(2 1)=  2.17491369E-05
 
 Cartesian coordinates (bohr)
  0.00000000000000E+00  0.00000000000000E+00  4.16414409697973E-02
  2.53011738355641E+00  2.53011738355641E+00  2.62171468283008E+00
  5.03948791336109E+00 -6.85120866389089E-02  5.20574317082676E+00
  7.66200000000000E+00  2.55400000000000E+00  7.53660732213248E+00
  0.00000000000000E+00  0.00000000000000E+00  1.05621721883659E+01
  2.69246027687083E+00  2.69246027687083E+00  1.28798035104351E+01
  6.17636838687081E+00  1.06836838687081E+00  1.48420848810702E+01
  5.10800000000000E+00  5.10800000000000E+00  6.49617908677111E-02
  7.68588261644358E+00  7.68588261644358E+00  2.62171468283008E+00
  1.02845120866389E+01  5.17651208663891E+00  5.20574317082676E+00
  1.27700000000000E+01  7.66200000000000E+00  7.93562556600203E+00
  5.10800000000000E+00  5.10800000000000E+00  1.00264709931355E+01
  7.52353972312917E+00  7.52353972312917E+00  1.28798035104351E+01
  9.14763161312920E+00  4.03963161312920E+00  1.48420848810702E+01
 Cartesian forces (hart/bohr); max,rms= 3.38562E-03 1.16047E-03 (free atoms)
  0.00000000000000E+00  0.00000000000000E+00  3.25491151623675E-04
 -5.32454006994839E-04 -5.32454006994839E-04  1.32897180287816E-03
  4.44519548453720E-04  4.44519548453720E-04 -2.23210649704630E-03
  0.00000000000000E+00  0.00000000000000E+00 -1.35054469610156E-03
  0.00000000000000E+00  0.00000000000000E+00  2.32050123047058E-03
 -7.31039208497686E-04 -7.31039208497686E-04 -2.54316301298241E-03
  7.13045540098727E-04  7.13045540098727E-04  1.55057409151464E-03
  0.00000000000000E+00  0.00000000000000E+00  3.38561980991850E-03
  5.32454006994839E-04  5.32454006994839E-04  1.32897180287816E-03
 -4.44519548453720E-04 -4.44519548453720E-04 -2.23210649704630E-03
  0.00000000000000E+00  0.00000000000000E+00 -6.05147875044796E-04
  0.00000000000000E+00  0.00000000000000E+00 -2.84472389594553E-04
  7.31039208497686E-04  7.31039208497686E-04 -2.54316301298241E-03
 -7.13045540098727E-04 -7.13045540098727E-04  1.55057409151464E-03
 
 At the end of Broyden step 14, total energy= -6.18447318324152E+01 Ha.


 BROYDEN STEP NUMBER  15  ------------------------------------------------------

     iter   Etot(hartree)      deltaE(h)  residm     vres2    diffor    maxfor
 ETOT  1  -61.844822498098    -6.184E+01 5.085E-07 1.778E-01 1.266E-03 3.461E-03
 ETOT  2  -61.844839684767    -1.719E-05 6.379E-08 3.695E-02 1.775E-04 3.355E-03
 ETOT  3  -61.844841944542    -2.260E-06 6.521E-08 1.265E-02 1.070E-04 3.458E-03
 ETOT  4  -61.844844168173    -2.224E-06 1.461E-08 1.547E-03 6.452E-05 3.393E-03
 ETOT  5  -61.844844352704    -1.845E-07 1.074E-08 1.701E-03 1.288E-05 3.398E-03
 ETOT  6  -61.844844446777    -9.407E-08 5.977E-09 8.914E-04 1.414E-05 3.400E-03

 At SCF step    6, etot is converged :
  for the second time, diff in etot=  9.407E-08 < toldfe=  1.000E-06

 Cartesian components of stress tensor (hartree/bohr^3)
  sigma(1 1)=  3.53923089E-05  sigma(3 2)=  0.00000000E+00
  sigma(2 2)=  3.53923089E-05  sigma(3 1)=  0.00000000E+00
  sigma(3 3)=  2.57715835E-05  sigma(2 1)=  1.86805198E-05
 
 Cartesian coordinates (bohr)
  0.00000000000000E+00  0.00000000000000E+00  4.49127485098876E-02
  2.52573730867752E+00  2.52573730867752E+00  2.63173643530888E+00
  5.03131573096426E+00 -7.66842690357418E-02  5.21089026855437E+00
  7.66200000000000E+00  2.55400000000000E+00  7.52168410160925E+00
  0.00000000000000E+00  0.00000000000000E+00  1.05581846989814E+01
  2.69448133926693E+00  2.69448133926693E+00  1.28661073894782E+01
  6.18070829250978E+00  1.07270829250978E+00  1.48451597221284E+01
  5.10800000000000E+00  5.10800000000000E+00  8.39040788963991E-02
  7.69026269132248E+00  7.69026269132248E+00  2.63173643530888E+00
  1.02926842690357E+01  5.18468426903574E+00  5.21089026855437E+00
  1.27700000000000E+01  7.66200000000000E+00  7.94013195806099E+00
  5.10800000000000E+00  5.10800000000000E+00  1.00092433533017E+01
  7.52151866073307E+00  7.52151866073307E+00  1.28661073894782E+01
  9.14329170749022E+00  4.03529170749022E+00  1.48451597221284E+01
 Cartesian forces (hart/bohr); max,rms= 3.40049E-03 1.08327E-03 (free atoms)
  3.78139708595670E-24  3.78139708595670E-24  2.10531225521073E-04
 -5.48120688080383E-04 -5.48120688080383E-04  9.18316694285996E-04
  9.54577784673787E-04  9.54577784673787E-04 -2.66018468436242E-03
  3.78139708595670E-24  3.78139708595670E-24 -1.05147901359266E-03
  3.78139708595670E-24  3.78139708595670E-24  2.84809375677661E-03
 -1.81317285173505E-04 -1.81317285173505E-04 -1.45902266067464E-03
 -8.25254674668795E-04 -8.25254674668795E-04  5.37538407637540E-04
  3.78139708595670E-24  3.78139708595670E-24  3.40049029407407E-03
  5.48120688080383E-04  5.48120688080383E-04  9.18316694285996E-04
 -9.54577784673787E-04 -9.54577784673787E-04 -2.66018468436242E-03
  3.78139708595670E-24  3.78139708595670E-24 -2.40720734575150E-04
  3.78139708595670E-24  3.78139708595670E-24  1.59788958023116E-04
  1.81317285173505E-04  1.81317285173505E-04 -1.45902266067464E-03
  8.25254674668795E-04  8.25254674668795E-04  5.37538407637540E-04
 
 At the end of Broyden step 15, total energy= -6.18448444467774E+01 Ha.


 BROYDEN STEP NUMBER  16  ------------------------------------------------------

     iter   Etot(hartree)      deltaE(h)  residm     vres2    diffor    maxfor
 ETOT  1  -61.844908601845    -6.184E+01 5.745E-07 7.032E-02 1.111E-03 3.480E-03
 ETOT  2  -61.844916642125    -8.040E-06 4.049E-08 6.114E-02 2.705E-04 3.210E-03
 ETOT  3  -61.844923385833    -6.744E-06 7.823E-09 2.152E-02 1.159E-04 3.326E-03
 ETOT  4  -61.844926425799    -3.040E-06 2.744E-08 5.866E-03 4.988E-05 3.309E-03
 ETOT  5  -61.844927191845    -7.660E-07 1.409E-08 1.207E-03 4.506E-05 3.271E-03
 ETOT  6  -61.844927290794    -9.895E-08 5.096E-09 9.542E-04 3.382E-05 3.305E-03

 At SCF step    6, etot is converged :
  for the second time, diff in etot=  9.895E-08 < toldfe=  1.000E-06

 Cartesian components of stress tensor (hartree/bohr^3)
  sigma(1 1)=  3.51862020E-05  sigma(3 2)=  0.00000000E+00
  sigma(2 2)=  3.51862020E-05  sigma(3 1)=  0.00000000E+00
  sigma(3 3)=  2.38355279E-05  sigma(2 1)=  1.66299867E-05
 
 Cartesian coordinates (bohr)
  0.00000000000000E+00  0.00000000000000E+00  4.70803251265312E-02
  2.52232747124946E+00  2.52232747124946E+00  2.63916351499679E+00
  5.02750513374192E+00 -8.04948662580763E-02  5.21035312926846E+00
  7.66200000000000E+00  2.55400000000000E+00  7.51127957368781E+00
  0.00000000000000E+00  0.00000000000000E+00  1.05593743669183E+01
  2.69481520678054E+00  2.69481520678054E+00  1.28543341996617E+01
  6.18230832156960E+00  1.07430832156960E+00  1.48489802187546E+01
  5.10800000000000E+00  5.10800000000000E+00  1.00073428350705E-01
  7.69367252875054E+00  7.69367252875054E+00  2.63916351499679E+00
  1.02964948662581E+01  5.18849486625807E+00  5.21035312926846E+00
  1.27700000000000E+01  7.66200000000000E+00  7.94300812695537E+00
  5.10800000000000E+00  5.10800000000000E+00  9.99917016977099E+00
  7.52118479321947E+00  7.52118479321947E+00  1.28543341996617E+01
  9.14169167843039E+00  4.03369167843039E+00  1.48489802187546E+01
 Cartesian forces (hart/bohr); max,rms= 3.30469E-03 1.04538E-03 (free atoms)
  7.56279417191340E-24  7.56279417191340E-24  6.47015941952879E-05
 -5.50535370652665E-04 -5.50535370652665E-04  3.91454631133410E-04
  1.06539816728512E-03  1.06539816728512E-03 -2.33691558774058E-03
  7.56279417191340E-24  7.56279417191340E-24 -7.81469616599662E-04
  7.56279417191340E-24  7.56279417191340E-24  2.43420748543394E-03
  4.34510631390632E-04  4.34510631390632E-04 -2.17828502761461E-04
 -1.61065530477647E-03 -1.61065530477647E-03 -3.17826115666729E-04
  7.56279417191340E-24  7.56279417191340E-24  3.30469299711886E-03
  5.50535370652665E-04  5.50535370652665E-04  3.91454631133410E-04
 -1.06539816728512E-03 -1.06539816728512E-03 -2.33691558774058E-03
  7.56279417191340E-24  7.56279417191340E-24 -1.42087114188083E-04
  7.56279417191340E-24  7.56279417191340E-24  8.21858041103788E-05
 -4.34510631390632E-04 -4.34510631390632E-04 -2.17828502761461E-04
  1.61065530477647E-03  1.61065530477647E-03 -3.17826115666729E-04
 
 At the end of Broyden step 16, total energy= -6.18449272907937E+01 Ha.


 BROYDEN STEP NUMBER  17  ------------------------------------------------------

     iter   Etot(hartree)      deltaE(h)  residm     vres2    diffor    maxfor
 ETOT  1  -61.845002150988    -6.185E+01 4.193E-07 2.132E-01 1.136E-03 3.152E-03
 ETOT  2  -61.845027312402    -2.516E-05 7.099E-08 1.953E-02 2.096E-04 2.943E-03
 ETOT  3  -61.845028382629    -1.070E-06 8.758E-08 1.109E-02 9.770E-05 3.041E-03
 ETOT  4  -61.845029818668    -1.436E-06 2.653E-08 4.743E-03 6.671E-05 2.974E-03
 ETOT  5  -61.845030157258    -3.386E-07 1.511E-08 2.703E-03 2.087E-05 2.988E-03
 ETOT  6  -61.845030321878    -1.646E-07 1.051E-08 1.122E-03 8.897E-06 2.997E-03

 At SCF step    6, etot is converged :
  for the second time, diff in etot=  1.646E-07 < toldfe=  1.000E-06

 Cartesian components of stress tensor (hartree/bohr^3)
  sigma(1 1)=  3.46595114E-05  sigma(3 2)=  0.00000000E+00
  sigma(2 2)=  3.46595114E-05  sigma(3 1)=  0.00000000E+00
  sigma(3 3)=  2.07903604E-05  sigma(2 1)=  1.49687189E-05
 
 Cartesian coordinates (bohr)
  0.00000000000000E+00  0.00000000000000E+00  5.00300959643705E-02
  2.51714322545240E+00  2.51714322545240E+00  2.64913842051300E+00
  5.02418337360960E+00 -8.38166263904014E-02  5.20655220107439E+00
  7.66200000000000E+00  2.55400000000000E+00  7.49669389915039E+00
  0.00000000000000E+00  0.00000000000000E+00  1.05659319825440E+01
  2.69661501839204E+00  2.69661501839204E+00  1.28404003251791E+01
  6.18238128956200E+00  1.07438128956200E+00  1.48510403106895E+01
  5.10800000000000E+00  5.10800000000000E+00  1.25599353942601E-01
  7.69885677454760E+00  7.69885677454760E+00  2.64913842051300E+00
  1.02998166263904E+01  5.19181662639040E+00  5.20655220107439E+00
  1.27700000000000E+01  7.66200000000000E+00  7.94706797166110E+00
  5.10800000000000E+00  5.10800000000000E+00  9.98592606840377E+00
  7.51938498160795E+00  7.51938498160795E+00  1.28404003251791E+01
  9.14161871043800E+00  4.03361871043800E+00  1.48510403106895E+01
 Cartesian forces (hart/bohr); max,rms= 2.99700E-03 1.01744E-03 (free atoms)
  0.00000000000000E+00  0.00000000000000E+00 -2.56358377521453E-04
 -5.57783321642968E-04 -5.57783321642968E-04 -4.01446643439998E-04
  9.39172137282815E-04  9.39172137282815E-04 -1.43908259526444E-03
  0.00000000000000E+00  0.00000000000000E+00 -3.42298283344293E-04
  0.00000000000000E+00  0.00000000000000E+00  1.37517050255204E-03
  9.64640139651428E-04  9.64640139651428E-04  1.09264925531442E-03
 -1.93249058258191E-03 -1.93249058258191E-03 -1.02533414199075E-03
  0.00000000000000E+00  0.00000000000000E+00  2.99699751254685E-03
  5.57783321642968E-04  5.57783321642968E-04 -4.01446643439998E-04
 -9.39172137282815E-04 -9.39172137282815E-04 -1.43908259526444E-03
  0.00000000000000E+00  0.00000000000000E+00 -4.76804223365723E-05
  0.00000000000000E+00  0.00000000000000E+00 -1.79402681135050E-04
 -9.64640139651428E-04 -9.64640139651428E-04  1.09264925531442E-03
  1.93249058258191E-03  1.93249058258191E-03 -1.02533414199075E-03
 
 At the end of Broyden step 17, total energy= -6.18450303218783E+01 Ha.


 BROYDEN STEP NUMBER  18  ------------------------------------------------------

     iter   Etot(hartree)      deltaE(h)  residm     vres2    diffor    maxfor
 ETOT  1  -61.845092625540    -6.185E+01 7.835E-07 2.904E-01 1.181E-03 2.693E-03
 ETOT  2  -61.845127809080    -3.518E-05 5.695E-08 6.934E-02 2.422E-04 2.451E-03
 ETOT  3  -61.845128198026    -3.889E-07 7.127E-08 5.925E-02 3.509E-05 2.416E-03
 ETOT  4  -61.845134090152    -5.892E-06 1.518E-07 1.413E-02 1.053E-04 2.489E-03
 ETOT  5  -61.845135243902    -1.154E-06 2.452E-08 6.837E-03 5.773E-05 2.431E-03
 ETOT  6  -61.845135716452    -4.725E-07 1.358E-08 3.935E-03 1.657E-05 2.448E-03
 ETOT  7  -61.845135975121    -2.587E-07 3.293E-09 1.404E-03 1.124E-05 2.459E-03

 At SCF step    7, etot is converged :
  for the second time, diff in etot=  2.587E-07 < toldfe=  1.000E-06

 Cartesian components of stress tensor (hartree/bohr^3)
  sigma(1 1)=  3.34531790E-05  sigma(3 2)=  0.00000000E+00
  sigma(2 2)=  3.34531790E-05  sigma(3 1)=  0.00000000E+00
  sigma(3 3)=  1.66222659E-05  sigma(2 1)=  1.46414071E-05
 
 Cartesian coordinates (bohr)
  0.00000000000000E+00  0.00000000000000E+00  5.32073730687356E-02
  2.51043078651429E+00  2.51043078651429E+00  2.65974771196428E+00
  5.02180203165272E+00 -8.61979683472755E-02  5.20063597986036E+00
  7.66200000000000E+00  2.55400000000000E+00  7.47933824468868E+00
  0.00000000000000E+00  0.00000000000000E+00  1.05761298145598E+01
  2.70127700856869E+00  2.70127700856869E+00  1.28289621476777E+01
  6.18048773721357E+00  1.07248773721357E+00  1.48491540542869E+01
  5.10800000000000E+00  5.10800000000000E+00  1.58818387089479E-01
  7.70556921348571E+00  7.70556921348571E+00  2.65974771196428E+00
  1.03021979683473E+01  5.19419796834728E+00  5.20063597986036E+00
  1.27700000000000E+01  7.66200000000000E+00  7.95086241298049E+00
  5.10800000000000E+00  5.10800000000000E+00  9.96987476716969E+00
  7.51472299143131E+00  7.51472299143131E+00  1.28289621476777E+01
  9.14351226278643E+00  4.03551226278643E+00  1.48491540542869E+01
 Cartesian forces (hart/bohr); max,rms= 2.45881E-03 8.94546E-04 (free atoms)
  7.56279417191340E-24  7.56279417191340E-24 -7.99649519941539E-04
 -5.32522864732654E-04 -5.32522864732654E-04 -1.22105374272998E-03
  5.81841744354370E-04  5.81841744354370E-04 -2.49598546732746E-04
  7.56279417191340E-24  7.56279417191340E-24  2.32465225175932E-04
  7.56279417191340E-24  7.56279417191340E-24  1.52368562252795E-04
  9.90458762438247E-04  9.90458762438247E-04  1.70698886375687E-03
 -1.46645122686277E-03 -1.46645122686277E-03 -1.16725855015111E-03
  7.56279417191340E-24  7.56279417191340E-24  2.45881168092741E-03
  5.32522864732654E-04  5.32522864732654E-04 -1.22105374272998E-03
 -5.81841744354370E-04 -5.81841744354370E-04 -2.49598546732746E-04
  7.56279417191340E-24  7.56279417191340E-24  1.88512098241239E-04
  7.56279417191340E-24  7.56279417191340E-24 -3.70664094941911E-04
 -9.90458762438247E-04 -9.90458762438247E-04  1.70698886375687E-03
  1.46645122686277E-03  1.46645122686277E-03 -1.16725855015111E-03
 
 At the end of Broyden step 18, total energy= -6.18451359751207E+01 Ha.


 BROYDEN STEP NUMBER  19  ------------------------------------------------------

     iter   Etot(hartree)      deltaE(h)  residm     vres2    diffor    maxfor
 ETOT  1  -61.845186730005    -6.185E+01 4.185E-07 1.044E-01 8.510E-04 2.038E-03
 ETOT  2  -61.845206318410    -1.959E-05 4.616E-08 4.341E-02 2.145E-04 1.823E-03
 ETOT  3  -61.845211151502    -4.833E-06 5.291E-08 8.580E-03 9.299E-05 1.836E-03
 ETOT  4  -61.845211802564    -6.511E-07 4.729E-08 4.365E-03 4.954E-05 1.786E-03
 ETOT  5  -61.845212149223    -3.467E-07 3.513E-09 2.197E-03 2.563E-05 1.812E-03

 At SCF step    5, etot is converged :
  for the second time, diff in etot=  3.467E-07 < toldfe=  1.000E-06

 Cartesian components of stress tensor (hartree/bohr^3)
  sigma(1 1)=  3.17734289E-05  sigma(3 2)=  0.00000000E+00
  sigma(2 2)=  3.17734289E-05  sigma(3 1)=  0.00000000E+00
  sigma(3 3)=  1.25293657E-05  sigma(2 1)=  1.55866485E-05
 
 Cartesian coordinates (bohr)
  0.00000000000000E+00  0.00000000000000E+00  5.49250667776754E-02
  2.50413266433782E+00  2.50413266433782E+00  2.66676929070304E+00
  5.02076003858746E+00 -8.72399614125442E-02  5.19566812206013E+00
  7.66200000000000E+00  2.55400000000000E+00  7.46500891843454E+00
  0.00000000000000E+00  0.00000000000000E+00  1.05855631415739E+01
  2.70764303751177E+00  2.70764303751177E+00  1.28245675520431E+01
  6.17764656047054E+00  1.06964656047054E+00  1.48434758643944E+01
  5.10800000000000E+00  5.10800000000000E+00  1.89618755677978E-01
  7.71186733566218E+00  7.71186733566218E+00  2.66676929070304E+00
  1.03032399614125E+01  5.19523996141255E+00  5.19566812206013E+00
  1.27700000000000E+01  7.66200000000000E+00  7.95333033790164E+00
  5.10800000000000E+00  5.10800000000000E+00  9.95550738916641E+00
  7.50835696248823E+00  7.50835696248823E+00  1.28245675520431E+01
  9.14635343952947E+00  4.03835343952947E+00  1.48434758643944E+01
 Cartesian forces (hart/bohr); max,rms= 1.81211E-03 6.76697E-04 (free atoms)
  0.00000000000000E+00  0.00000000000000E+00 -1.41973941074466E-03
 -4.91195398452933E-04 -4.91195398452933E-04 -1.62387211672298E-03
  1.60304998465926E-04  1.60304998465926E-04  6.36149233761164E-04
  0.00000000000000E+00  0.00000000000000E+00  7.11070612880627E-04
  0.00000000000000E+00  0.00000000000000E+00 -5.94222373671853E-04
  4.33736140214971E-04  4.33736140214971E-04  1.25090864875599E-03
 -4.66733584050354E-04 -4.66733584050354E-04 -6.43542949470275E-04
  0.00000000000000E+00  0.00000000000000E+00  1.81210822045735E-03
  4.91195398452933E-04  4.91195398452933E-04 -1.62387211672298E-03
 -1.60304998465926E-04 -1.60304998465926E-04  6.36149233761164E-04
  0.00000000000000E+00  0.00000000000000E+00  5.19414078843730E-04
  0.00000000000000E+00  0.00000000000000E+00 -2.67916760413008E-04
 -4.33736140214971E-04 -4.33736140214971E-04  1.25090864875599E-03
  4.66733584050354E-04  4.66733584050354E-04 -6.43542949470275E-04
 
 At the end of Broyden step 19, total energy= -6.18452121492228E+01 Ha.


 BROYDEN STEP NUMBER  20  ------------------------------------------------------

     iter   Etot(hartree)      deltaE(h)  residm     vres2    diffor    maxfor
 ETOT  1  -61.845234499795    -6.185E+01 1.168E-07 5.255E-02 7.277E-04 1.789E-03
 ETOT  2  -61.845243339393    -8.840E-06 1.986E-08 9.491E-03 1.596E-04 1.770E-03
 ETOT  3  -61.845243760369    -4.210E-07 6.441E-09 6.580E-03 3.414E-05 1.773E-03
 ETOT  4  -61.845245098698    -1.338E-06 7.661E-09 1.119E-03 5.842E-05 1.796E-03
 ETOT  5  -61.845245271434    -1.727E-07 2.043E-09 5.796E-04 2.343E-05 1.796E-03
 ETOT  6  -61.845245346818    -7.538E-08 2.913E-10 1.067E-04 1.069E-05 1.797E-03

 At SCF step    6, etot is converged :
  for the second time, diff in etot=  7.538E-08 < toldfe=  1.000E-06

 Cartesian components of stress tensor (hartree/bohr^3)
  sigma(1 1)=  3.09022340E-05  sigma(3 2)=  0.00000000E+00
  sigma(2 2)=  3.09022340E-05  sigma(3 1)=  0.00000000E+00
  sigma(3 3)=  1.13859071E-05  sigma(2 1)=  1.66742773E-05
 
 Cartesian coordinates (bohr)
  0.00000000000000E+00  0.00000000000000E+00  5.37593055154696E-02
  2.50107042322650E+00  2.50107042322650E+00  2.66709827920732E+00
  5.02095315012313E+00 -8.70468498768702E-02  5.19442500034671E+00
  7.66200000000000E+00  2.55400000000000E+00  7.46050132932350E+00
  0.00000000000000E+00  0.00000000000000E+00  1.05888884670735E+01
  2.71143866168121E+00  2.71143866168121E+00  1.28265941066861E+01
  6.17591223731959E+00  1.06791223731959E+00  1.48389859329584E+01
  5.10800000000000E+00  5.10800000000000E+00  2.03821199028499E-01
  7.71492957677350E+00  7.71492957677350E+00  2.66709827920732E+00
  1.03030468498769E+01  5.19504684987687E+00  5.19442500034671E+00
  1.27700000000000E+01  7.66200000000000E+00  7.95409440717830E+00
  5.10800000000000E+00  5.10800000000000E+00  9.94966954313713E+00
  7.50456133831879E+00  7.50456133831879E+00  1.28265941066861E+01
  9.14808776268041E+00  4.04008776268041E+00  1.48389859329584E+01
 Cartesian forces (hart/bohr); max,rms= 1.79737E-03 5.66944E-04 (free atoms)
  0.00000000000000E+00  0.00000000000000E+00 -1.79737001742785E-03
 -4.75785049806786E-04 -4.75785049806786E-04 -1.42548902620016E-03
 -6.65452197539869E-05 -6.65452197539869E-05  7.65683021430545E-04
  0.00000000000000E+00  0.00000000000000E+00  8.08039997496664E-04
  0.00000000000000E+00  0.00000000000000E+00 -5.73878011276186E-04
 -1.39917780475838E-04 -1.39917780475838E-04  4.24608835116827E-04
  2.59410034387628E-04  2.59410034387628E-04 -3.27559015225550E-05
  0.00000000000000E+00  0.00000000000000E+00  1.40283758018895E-03
  4.75785049806786E-04  4.75785049806786E-04 -1.42548902620016E-03
  6.65452197539869E-05  6.65452197539869E-05  7.65683021430545E-04
  0.00000000000000E+00  0.00000000000000E+00  6.69628624419066E-04
  0.00000000000000E+00  0.00000000000000E+00  2.66479689500564E-05
  1.39917780475838E-04  1.39917780475838E-04  4.24608835116827E-04
 -2.59410034387628E-04 -2.59410034387628E-04 -3.27559015225550E-05
 
 At the end of Broyden step 20, total energy= -6.18452453468177E+01 Ha.


 BROYDEN STEP NUMBER  21  ------------------------------------------------------

     iter   Etot(hartree)      deltaE(h)  residm     vres2    diffor    maxfor
 ETOT  1  -61.845262795344    -6.185E+01 9.000E-08 2.599E-02 5.525E-04 1.972E-03
 ETOT  2  -61.845267465350    -4.670E-06 1.291E-08 2.166E-03 9.968E-05 2.006E-03
 ETOT  3  -61.845267523204    -5.785E-08 5.321E-09 2.071E-03 1.399E-05 2.009E-03
 ETOT  4  -61.845267829405    -3.062E-07 3.983E-09 7.329E-04 2.522E-05 2.028E-03

 At SCF step    4, etot is converged :
  for the second time, diff in etot=  3.062E-07 < toldfe=  1.000E-06

 Cartesian components of stress tensor (hartree/bohr^3)
  sigma(1 1)=  3.05234111E-05  sigma(3 2)=  0.00000000E+00
  sigma(2 2)=  3.05234111E-05  sigma(3 1)=  0.00000000E+00
  sigma(3 3)=  1.09557274E-05  sigma(2 1)=  1.72175448E-05
 
 Cartesian coordinates (bohr)
  0.00000000000000E+00  0.00000000000000E+00  5.03694055653836E-02
  2.49917582219802E+00  2.49917582219802E+00  2.66446745324257E+00
  5.02147990683897E+00 -8.65200931610264E-02  5.19472161235396E+00
[...]
       0.000000000000      0.236374699225      0.103461522881
       0.500000000000      0.239860868186      0.203381733531
       0.500000000000      0.500000000000      0.291291516387
       0.000000000000      0.000000000000      0.415349605981
       0.000000000000      0.265634307966      0.502526528370
       0.500000000000      0.354665549605      0.581372120394
       0.000000000000      0.500000000000      0.015772029646
       0.000000000000      0.763625300775      0.103461522881
       0.500000000000      0.760139131814      0.203381733531
       0.500000000000      1.000000000000      0.312743380436
       0.000000000000      0.500000000000      0.389288820051
       0.000000000000      0.734365692034      0.502526528370
       0.500000000000      0.645334450395      0.581372120394
 rms dE/dt=  9.9845E-05; max dE/dt=  3.9605E-04; dE/dt below (all hartree)
    1       0.000000000000      0.000000000000     -0.000252001930
    2       0.000000000000     -0.000116678445      0.000110196464
    3       0.000000000000      0.000000351079      0.000015383117
    4       0.000000000000      0.000000000000     -0.000054345509
    5       0.000000000000      0.000000000000      0.000123344531
    6       0.000000000000     -0.000098935804     -0.000083537239
    7       0.000000000000      0.000137678203     -0.000164285955
    8       0.000000000000      0.000000000000      0.000396049316
    9       0.000000000000      0.000116678445      0.000110196464
   10       0.000000000000     -0.000000351079      0.000015383117
   11       0.000000000000      0.000000000000      0.000049279473
   12       0.000000000000      0.000000000000     -0.000018300870
   13       0.000000000000      0.000098935804     -0.000083537239
   14       0.000000000000     -0.000137678203     -0.000164285955
 
 cartesian coordinates (angstrom) at end:
    1      0.00000000000000     0.00000000000000    -0.08173515072028
    2      1.27785920083224     1.27785920083224     1.39830171523280
    3      2.64822427946578    -0.05481290053062     2.74874193732990
    4      4.05455576999460     1.35151858999820     3.93685899506161
    5      0.00000000000000     0.00000000000000     5.61352713831945
    6      1.43603882142912     1.43603882142912     6.79173945059499
    7      3.26886692408789     0.56582974409149     7.85735228419018
    8      2.70303717999640     2.70303717999640     0.21316191268551
    9      4.12821515916056     4.12821515916056     1.39830171523280
   10      5.46088726052342     2.75785008052702     2.74874193732990
   11      6.75759294999100     4.05455576999460     4.22678492558428
   12      2.70303717999640     2.70303717999640     5.26131077177319
   13      3.97003553856368     3.97003553856368     6.79173945059499
   14      4.84024461590131     2.13720743590491     7.85735228419018

 cartesian forces (hartree/bohr) at end:
    1      0.00000000000000     0.00000000000000     0.00000986565835
    2      0.00000571057385     0.00000571057385    -0.00000431595456
    3     -0.00000001718278    -0.00000001718278    -0.00000060360738
    4      0.00000000000000     0.00000000000000     0.00000212656593
    5      0.00000000000000     0.00000000000000    -0.00000483075751
    6      0.00000484219870     0.00000484219870     0.00000326954675
    7     -0.00000673836155    -0.00000673836155     0.00000643120360
    8      0.00000000000000     0.00000000000000    -0.00001550831370
    9     -0.00000571057385    -0.00000571057385    -0.00000431595456
   10      0.00000001718278     0.00000001718278    -0.00000060360738
   11      0.00000000000000     0.00000000000000    -0.00000193079438
   12      0.00000000000000     0.00000000000000     0.00000071526449
   13     -0.00000484219870    -0.00000484219870     0.00000326954675
   14      0.00000673836155     0.00000673836155     0.00000643120360
 frms,max,avg= 4.6748434E-06 1.5508314E-05   0.000E+00  0.000E+00  1.293E-09 h/b

 cartesian forces (eV/Angstrom) at end:
    1      0.00000000000000     0.00000000000000     0.00050731249881
    2      0.00029364948461     0.00029364948461    -0.00022193528469
    3     -0.00000088357417    -0.00000088357417    -0.00003103873614
    4      0.00000000000000     0.00000000000000     0.00010935240596
    5      0.00000000000000     0.00000000000000    -0.00024840751370
    6      0.00024899584360     0.00024899584360     0.00016812683670
    7     -0.00034650044783    -0.00034650044783     0.00033070575232
    8      0.00000000000000     0.00000000000000    -0.00079746947381
    9     -0.00029364948461    -0.00029364948461    -0.00022193528469
   10      0.00000088357417     0.00000088357417    -0.00003103873614
   11      0.00000000000000     0.00000000000000    -0.00009928542880
   12      0.00000000000000     0.00000000000000     0.00003678037515
   13     -0.00024899584360    -0.00024899584360     0.00016812683670
   14      0.00034650044783     0.00034650044783     0.00033070575232
 frms,max,avg= 2.4039009E-04 7.9746947E-04   0.000E+00  0.000E+00  6.647E-08 e/A
 length scales= 10.216000000000 10.216000000000 10.216000000000 bohr
              =  5.406074359993  5.406074359993  5.406074359993 angstroms
 Eigenvalues (hartree) for nkpt=  12  k points:
 kpt#   1, nband= 30, wtk=  0.06250, kpt=  0.0000  0.1250  0.0000 (reduced coord)
  -0.34249  -0.31327  -0.28196  -0.26480  -0.25311  -0.24780  -0.19338  -0.17874
  -0.14269  -0.12110  -0.11768  -0.07627  -0.04426  -0.02113  -0.00971  -0.00655
   0.00980   0.01732   0.02333   0.02945   0.03903   0.05101   0.05728   0.05870
   0.06500   0.06740   0.08239   0.09777   0.12330   0.13076
 kpt#   2, nband= 30, wtk=  0.06250, kpt=  0.1250  0.0000  0.0000 (reduced coord)
  -0.33852  -0.30923  -0.26749  -0.25895  -0.25267  -0.24671  -0.19509  -0.17618
  -0.13426  -0.13368  -0.11826  -0.07672  -0.05569  -0.03380  -0.02292  -0.00172
  -0.00051   0.00594   0.01196   0.02194   0.02345   0.03028   0.03358   0.04436
   0.06836   0.07291   0.08744   0.09756   0.12084   0.13331
 kpt#   3, nband= 30, wtk=  0.06250, kpt=  0.0000  0.3750  0.0000 (reduced coord)
  -0.33441  -0.31320  -0.29940  -0.27961  -0.24748  -0.23389  -0.18539  -0.17395
  -0.13493  -0.12925  -0.09528  -0.07552  -0.04848  -0.03078  -0.02804  -0.01212
  -0.00446   0.01338   0.01652   0.02708   0.02790   0.04161   0.04229   0.06799
   0.06903   0.07046   0.08235   0.09403   0.12283   0.14420
 kpt#   4, nband= 30, wtk=  0.12500, kpt=  0.1250  0.2500  0.0000 (reduced coord)
  -0.33411  -0.30679  -0.28890  -0.26700  -0.24650  -0.23311  -0.18974  -0.17412
  -0.13911  -0.12788  -0.10250  -0.07955  -0.04920  -0.03290  -0.02825  -0.02013
  -0.01095  -0.00215   0.00651   0.01916   0.02150   0.02406   0.03412   0.04171
   0.05580   0.07112   0.09268   0.10003   0.12292   0.14666
 kpt#   5, nband= 30, wtk=  0.12500, kpt=  0.2500  0.1250  0.0000 (reduced coord)
  -0.32232  -0.29443  -0.26241  -0.24731  -0.23664  -0.22762  -0.19871  -0.16795
  -0.14518  -0.13415  -0.12035  -0.09406  -0.08351  -0.05252  -0.04549  -0.03461
  -0.03061  -0.01540  -0.00381  -0.00019   0.01319   0.01890   0.02864   0.03599
   0.06243   0.06509   0.08250   0.08995   0.10860   0.11365
 kpt#   6, nband= 30, wtk=  0.06250, kpt=  0.3750  0.0000  0.0000 (reduced coord)
  -0.29944  -0.27457  -0.24039  -0.22876  -0.21952  -0.21629  -0.20904  -0.16434
  -0.15400  -0.15399  -0.14719  -0.11994  -0.11859  -0.08074  -0.05211  -0.04385
  -0.03690  -0.02314  -0.01139  -0.00391   0.00986   0.01240   0.03077   0.04872
   0.05462   0.06678   0.07020   0.07897   0.08720   0.09481
 kpt#   7, nband= 30, wtk=  0.06250, kpt=  0.1250  0.5000  0.0000 (reduced coord)
  -0.32592  -0.31178  -0.29389  -0.27900  -0.24145  -0.22955  -0.17953  -0.17313
  -0.13994  -0.12007  -0.09870  -0.06733  -0.04373  -0.04198  -0.04175  -0.02675
  -0.02007  -0.00704  -0.00618   0.00846   0.02530   0.02688   0.02690   0.04559
   0.04863   0.07624   0.09044   0.10184   0.12476   0.14593
 kpt#   8, nband= 30, wtk=  0.12500, kpt=  0.2500  0.3750  0.0000 (reduced coord)
  -0.31404  -0.29355  -0.28043  -0.26153  -0.23255  -0.21773  -0.18600  -0.17357
  -0.14312  -0.13007  -0.10125  -0.08305  -0.06973  -0.05699  -0.04703  -0.04413
  -0.03989  -0.02989  -0.01426  -0.00407   0.00377   0.00856   0.01945   0.02945
   0.04457   0.07175   0.08496   0.09229   0.10910   0.11677
 kpt#   9, nband= 30, wtk=  0.12500, kpt=  0.3750  0.2500  0.0000 (reduced coord)
  -0.29483  -0.27101  -0.25208  -0.23622  -0.22929  -0.21444  -0.19860  -0.17631
  -0.15241  -0.14571  -0.12402  -0.11610  -0.10889  -0.07982  -0.05919  -0.04586
  -0.03930  -0.02232  -0.00492  -0.00233   0.00061   0.00496   0.02099   0.02443
   0.03728   0.06197   0.07264   0.08127   0.08491   0.09768
 kpt#  10, nband= 30, wtk=  0.06250, kpt=  0.5000  0.1250  0.0000 (reduced coord)
  -0.27211  -0.26615  -0.24776  -0.23552  -0.21115  -0.20643  -0.19092  -0.17618
  -0.17379  -0.14742  -0.14504  -0.14187  -0.13638  -0.08914  -0.04364  -0.04342
  -0.03694  -0.02165  -0.01875  -0.01078   0.00387   0.00487   0.03662   0.03824
   0.05190   0.05483   0.06838   0.06917   0.08612   0.09126
 kpt#  11, nband= 30, wtk=  0.06250, kpt=  0.3750  0.5000  0.0000 (reduced coord)
  -0.28562  -0.27414  -0.25781  -0.24773  -0.21953  -0.21906  -0.21141  -0.16517
  -0.15059  -0.14265  -0.11579  -0.10652  -0.08731  -0.08250  -0.06019  -0.04499
  -0.04175  -0.03509  -0.02069  -0.00415  -0.00370   0.00214   0.01174   0.01690
   0.02543   0.06805   0.07619   0.07910   0.08890   0.09667
 kpt#  12, nband= 30, wtk=  0.06250, kpt=  0.5000  0.3750  0.0000 (reduced coord)
  -0.26266  -0.25621  -0.23987  -0.23897  -0.23717  -0.23036  -0.21730  -0.15661
  -0.14858  -0.14178  -0.13989  -0.13210  -0.11159  -0.09024  -0.05058  -0.04139
  -0.02921  -0.02607  -0.01909  -0.01165  -0.01033   0.00409   0.01071   0.01179
   0.02417   0.06575   0.06957   0.07397   0.07944   0.09225

,Min el dens=  9.2244E-05 el/bohr^3 at reduced coord.  0.0000  0.0000  0.7333
,   next min=  9.2353E-05 el/bohr^3 at reduced coord.  0.0417  0.0000  0.7333
,Max el dens=  9.5693E-02 el/bohr^3 at reduced coord.  0.5000  0.5111  0.5867
,   next max=  9.5693E-02 el/bohr^3 at reduced coord.  0.5000  0.4889  0.5867

 Seven components of total energy (hartree) are
 kinetic= 2.07654135822867E+01 Hartree= 4.05356885563419E+01
      xc=-2.44490381434102E+01 loc psp=-9.68816569834451E+01
 nl psp = 1.32646540976896E+01 pspcore= 4.21738380038412E-01
 Ewald  =-1.55025525259120E+01 resulting in Etotal=-6.18457530364107E+01 hartree
 Also Etotal= -1.68290849753549E+03 eV
 rms coord change=  8.1434E-03   atom, delta coord (reduced):
     1        0.000000000000      0.000000000000     -0.006047652716
     2        0.000000000000     -0.013625300775      0.003461522881
     3        0.000000000000     -0.010139131814      0.003381733531
     4        0.000000000000      0.000000000000     -0.008708483613
     5        0.000000000000      0.000000000000      0.015349605981
     6        0.000000000000      0.015634307966      0.002526528370
     7        0.000000000000      0.006779880067     -0.018627879606
     8        0.000000000000      0.000000000000      0.015772029646
     9        0.000000000000      0.013625300775      0.003461522881
    10        0.000000000000      0.010139131814      0.003381733531
    11        0.000000000000      0.000000000000      0.012743380436
    12        0.000000000000      0.000000000000     -0.010711179949
    13        0.000000000000     -0.015634307966      0.002526528370
    14        0.000000000000     -0.006779880067     -0.018627879606

 Cartesian components of stress tensor (hartree/bohr^3)
  sigma(1 1)=  3.43207924E-05  sigma(3 2)=  0.00000000E+00
  sigma(2 2)=  3.43207924E-05  sigma(3 1)=  0.00000000E+00
  sigma(3 3)=  1.76194353E-05  sigma(2 1)=  1.58553822E-05

-Cartesian components of stress tensor (GPa)         [Pressure= -8.4596E-01 GPa]
- sigma(1 1)=  1.00975237E+00  sigma(3 2)=  0.00000000E+00
- sigma(2 2)=  1.00975237E+00  sigma(3 1)=  0.00000000E+00
- sigma(3 3)=  5.18381581E-01  sigma(2 1)=  4.66481357E-01

== END DATASET(S) ==============================================================
================================================================================
  
 -outvars: echo values of variables after computation  --------
     acell    1.0216000000E+01  1.0216000000E+01  1.0216000000E+01 Bohr
       amu    2.80855000E+01
    diemac    1.20000000E+01
      ecut    1.00000000E+01 Hartree
    etotal   -6.1845753036E+01
     fcart    0.0000000000E+00  0.0000000000E+00  9.8656583500E-06
              5.7105738507E-06  5.7105738507E-06 -4.3159545638E-06
             -1.7182783573E-08 -1.7182783573E-08 -6.0360737623E-07
              0.0000000000E+00  0.0000000000E+00  2.1265659323E-06
              0.0000000000E+00  0.0000000000E+00 -4.8307575065E-06
              4.8421987026E-06  4.8421987026E-06  3.2695467472E-06
             -6.7383615513E-06 -6.7383615513E-06  6.4312035963E-06
              0.0000000000E+00  0.0000000000E+00 -1.5508313695E-05
             -5.7105738507E-06 -5.7105738507E-06 -4.3159545638E-06
              1.7182783573E-08  1.7182783573E-08 -6.0360737623E-07
              0.0000000000E+00  0.0000000000E+00 -1.9307943762E-06
              0.0000000000E+00  0.0000000000E+00  7.1526448899E-07
             -4.8421987026E-06 -4.8421987026E-06  3.2695467472E-06
              6.7383615513E-06  6.7383615513E-06  6.4312035963E-06
    ionmov         3
       kpt    0.00000000E+00  1.25000000E-01  0.00000000E+00
              1.25000000E-01  0.00000000E+00  0.00000000E+00
              0.00000000E+00  3.75000000E-01  0.00000000E+00
              1.25000000E-01  2.50000000E-01  0.00000000E+00
              2.50000000E-01  1.25000000E-01  0.00000000E+00
              3.75000000E-01  0.00000000E+00  0.00000000E+00
              1.25000000E-01  5.00000000E-01  0.00000000E+00
              2.50000000E-01  3.75000000E-01  0.00000000E+00
              3.75000000E-01  2.50000000E-01  0.00000000E+00
              5.00000000E-01  1.25000000E-01  0.00000000E+00
              3.75000000E-01  5.00000000E-01  0.00000000E+00
              5.00000000E-01  3.75000000E-01  0.00000000E+00
   kptrlen    5.77904230E+01
    kptopt         1
  kptrlatt    8  0  0   4  4  0   0  0  1
     mkmem        12
     natom        14
     nband        30
     ngfft        24      45      75
      nkpt        12
     nstep        20
      nsym         4
     ntime        50
     ntype         1
       occ    2.000000  2.000000  2.000000  2.000000  2.000000  2.000000
              2.000000  2.000000  2.000000  2.000000  2.000000  2.000000
              2.000000  2.000000  2.000000  2.000000  2.000000  2.000000
              2.000000  2.000000  2.000000  2.000000  2.000000  2.000000
              2.000000  2.000000  2.000000  2.000000  0.000000  0.000000
     rprim    5.0000000000E-01 -5.0000000000E-01  0.0000000000E+00
              1.0000000000E+00  1.0000000000E+00  0.0000000000E+00
              0.0000000000E+00  0.0000000000E+00  2.5000000000E+00
    shiftk    0.00000000E+00  5.00000000E-01  0.00000000E+00
    strten    3.4320792426E-05  3.4320792426E-05  1.7619435312E-05
              0.0000000000E+00  0.0000000000E+00  1.5855382214E-05
    symrel    1  0  0   0  1  0   0  0  1       1  0  0   0 -1  0   0  0  1
             -1  0  0   0 -1  0   0  0  1      -1  0  0   0  1  0   0  0  1
    toldfe    1.00000000E-06 Hartree
    tolmxf    1.00000000E-06
      type    1  1  1  1  1  1  1  1  1  1  1  1  1  1
       wtk      0.06250    0.06250    0.06250    0.12500    0.12500    0.06250
                0.06250    0.12500    0.12500    0.06250    0.06250    0.06250
    xangst    0.0000000000E+00  0.0000000000E+00 -8.1735150720E-02
              1.2778592008E+00  1.2778592008E+00  1.3983017152E+00
              2.6482242795E+00 -5.4812900531E-02  2.7487419373E+00
              4.0545557700E+00  1.3515185900E+00  3.9368589951E+00
              0.0000000000E+00  0.0000000000E+00  5.6135271383E+00
              1.4360388214E+00  1.4360388214E+00  6.7917394506E+00
              3.2688669241E+00  5.6582974409E-01  7.8573522842E+00
              2.7030371800E+00  2.7030371800E+00  2.1316191269E-01
              4.1282151592E+00  4.1282151592E+00  1.3983017152E+00
              5.4608872605E+00  2.7578500805E+00  2.7487419373E+00
              6.7575929500E+00  4.0545557700E+00  4.2267849256E+00
              2.7030371800E+00  2.7030371800E+00  5.2613107718E+00
              3.9700355386E+00  3.9700355386E+00  6.7917394506E+00
              4.8402446159E+00  2.1372074359E+00  7.8573522842E+00
     xcart    0.0000000000E+00  0.0000000000E+00 -1.5445705038E-01
              2.4148039273E+00  2.4148039273E+00  2.6424072944E+00
              5.0044186294E+00 -1.0358137061E-01  5.1943694744E+00
              7.6620000000E+00  2.5540000000E+00  7.4395853285E+00
              0.0000000000E+00  0.0000000000E+00  1.0608028937E+01
              2.7137200902E+00  2.7137200902E+00  1.2834527535E+01
              6.1772632548E+00  1.0692632548E+00  1.4848243955E+01
              5.1080000000E+00  5.1080000000E+00  4.0281763716E-01
              7.8011960727E+00  7.8011960727E+00  2.6424072944E+00
              1.0319581371E+01  5.2115813706E+00  5.1943694744E+00
              1.2770000000E+01  7.6620000000E+00  7.9874659363E+00
              5.1080000000E+00  5.1080000000E+00  9.9424364641E+00
              7.5022799098E+00  7.5022799098E+00  1.2834527535E+01
              9.1467367452E+00  4.0387367452E+00  1.4848243955E+01
      xred    0.0000000000E+00  0.0000000000E+00 -6.0476527164E-03
              0.0000000000E+00  2.3637469923E-01  1.0346152288E-01
              5.0000000000E-01  2.3986086819E-01  2.0338173353E-01
              5.0000000000E-01  5.0000000000E-01  2.9129151639E-01
              0.0000000000E+00  0.0000000000E+00  4.1534960598E-01
              0.0000000000E+00  2.6563430797E-01  5.0252652837E-01
              5.0000000000E-01  3.5466554960E-01  5.8137212039E-01
              0.0000000000E+00  5.0000000000E-01  1.5772029646E-02
              0.0000000000E+00  7.6362530077E-01  1.0346152288E-01
              5.0000000000E-01  7.6013913181E-01  2.0338173353E-01
              5.0000000000E-01  1.0000000000E+00  3.1274338044E-01
              0.0000000000E+00  5.0000000000E-01  3.8928882005E-01
              0.0000000000E+00  7.3436569203E-01  5.0252652837E-01
              5.0000000000E-01  6.4533445040E-01  5.8137212039E-01
    zatnum    14.000

================================================================================

- Total cpu        time (s,m,h):      21053.3      350.89      5.848
- Total wall clock time (s,m,h):************************************

 For major independent code sections, cpu and wall times (sec),
 as well as % of the total time and number of calls 

- routine                 cpu     %       wall     %      number of calls 
-                                                          (-1=no count)
- fourwf(pot)        11104.299  52.7  15022.316   0.0         718189
- nonlop(apply)       3458.643  16.4*********** 200.0         718189
- projbd              2812.093  13.4   1456.443   0.0        1149098
- fourwf(den)          891.579   4.2***********-200.0          99792
- cgwf-O(npw)          815.939   3.9    404.959   0.0             -1
- nonlop(forces)       772.094   3.7*********** 100.0          99792
- vtowfk(ssdiag)       676.846   3.2    352.789   0.0             -1
- nonlop(stress)       196.849   0.9     89.296   0.0          18360
- getghc-other         163.102   0.8    158.545   0.0             -1
- 40   others          138.450   0.7     76.373   0.0

- subtotal           21029.895  99.9*********** 100.0

================================================================================

 Calculation completed.
 Delivered   21 WARNINGs and   3 COMMENTs to log file.
+Overall time at end (sec) : cpu=      21053.3  wall=*************
