
 Version 3.2.1  of ABINIT 
 (sequential version, prepared for a Compaq/DEC computer) 

 Copyright (C) 1998-2001 ABINIT group . 
 ABINIT comes with ABSOLUTELY NO WARRANTY.
 It is free software, and you are welcome to redistribute it
 under certain conditions (GNU General Public License,
 see ~ABINIT/Infos/copyright or http://www.gnu.org/copyleft/gpl.txt).

 ABINIT is a project of the Universite Catholique de Louvain,
 Corning Inc. and other collaborators, see ~ABINIT/Infos/contributors.
 Please read ~ABINIT/Infos/acknowledgments.htm for suggested
 acknowledgments of the ABINIT effort.
 For more information, see http://www.pcpm.ucl.ac.be/ABINIT .

 Starting date : Fri 18 Jan 2002.
  
- input  file    -> input
- output file    -> output
- root for input  files -> in
- root for output files -> out


 Symmetries : space group P6 c c (#184); Bravais hP (primitive hexag.)
================================================================================
 Values of the parameters that define the memory need of the present run
   intxc =         0  ionmov =         2    iscf =         5     ixc =         7
   mband =       201  mffmem =         1   mgfft =       128   mkmem =         0
   mproj =         1 mpssoang=         3     mpw =     36656  mqgrid =      1201
   natom =        72    nfft =   1310720    nkpt =         1  nloalg =         4
  nspden =         1 nspinor =         1  nsppol =         1    nsym =        12
  n1xccc =      2501   ntype =         3  occopt =         1
================================================================================
 This job should need less than                     403.371 Mbytes of memory.
 Rough estimation (10% accuracy) of disk space for files :
 WF disk file :    112.427 Mbytes ; DEN or POT disk file :     10.002 Mbytes.
 mkmem==0 => use of 2 WF temporary disk files
================================================================================

 -outvars: echo values of preprocessed input variables --------
     acell    2.5937436051E+01  2.5937436051E+01  1.6031491657E+01
       amu    2.69815000E+01  3.09738000E+01  1.59994000E+01
      ecut    3.00000000E+01
    ecutsm    1.00000000E+00
    enunit         2
    ionmov         2
    irdwfk         1
    istwfk      2
       ixc         7
   kptrlen    1.60314917E+01
    kptopt         1
  kptrlatt    1  0  0   0  1  0   0  0  1
     mkmem         0
     natom        72
     nband       201
     ngfft       128     128      80
      nkpt         1
     nstep       100
      nsym        12
     ntime       200
     ntype         3
       occ    2.000000  2.000000  2.000000  2.000000  2.000000  2.000000
              2.000000  2.000000  2.000000  2.000000  2.000000  2.000000
              2.000000  2.000000  2.000000  2.000000  2.000000  2.000000
              2.000000  2.000000  2.000000  2.000000  2.000000  2.000000
              2.000000  2.000000  2.000000  2.000000  2.000000  2.000000
              2.000000  2.000000  2.000000  2.000000  2.000000  2.000000
              2.000000  2.000000  2.000000  2.000000  2.000000  2.000000
              2.000000  2.000000  2.000000  2.000000  2.000000  2.000000
              2.000000  2.000000  2.000000  2.000000  2.000000  2.000000
              2.000000  2.000000  2.000000  2.000000  2.000000  2.000000
              2.000000  2.000000  2.000000  2.000000  2.000000  2.000000
              2.000000  2.000000  2.000000  2.000000  2.000000  2.000000
              2.000000  2.000000  2.000000  2.000000  2.000000  2.000000
              2.000000  2.000000  2.000000  2.000000  2.000000  2.000000
              2.000000  2.000000  2.000000  2.000000  2.000000  2.000000
              2.000000  2.000000  2.000000  2.000000  2.000000  2.000000
              2.000000  2.000000  2.000000  2.000000  2.000000  2.000000
              2.000000  2.000000  2.000000  2.000000  2.000000  2.000000
              2.000000  2.000000  2.000000  2.000000  2.000000  2.000000
              2.000000  2.000000  2.000000  2.000000  2.000000  2.000000
              2.000000  2.000000  2.000000  2.000000  2.000000  2.000000
              2.000000  2.000000  2.000000  2.000000  2.000000  2.000000
              2.000000  2.000000  2.000000  2.000000  2.000000  2.000000
              2.000000  2.000000  2.000000  2.000000  2.000000  2.000000
              2.000000  2.000000  2.000000  2.000000  2.000000  2.000000
              2.000000  2.000000  2.000000  2.000000  2.000000  2.000000
              2.000000  2.000000  2.000000  2.000000  2.000000  2.000000
              2.000000  2.000000  2.000000  2.000000  2.000000  2.000000
              2.000000  2.000000  2.000000  2.000000  2.000000  2.000000
              2.000000  2.000000  2.000000  2.000000  2.000000  2.000000
              2.000000  2.000000  2.000000  2.000000  2.000000  2.000000
              2.000000  2.000000  2.000000  2.000000  2.000000  2.000000
              0.000000  0.000000  0.000000  0.000000  0.000000  0.000000
              0.000000  0.000000  0.000000
   optcell         1
     rprim    1.0000000000E+00  0.0000000000E+00  0.0000000000E+00
             -5.0000000000E-01  8.6602540378E-01  0.0000000000E+00
              6.1232339957E-17  1.0605752387E-16  1.0000000000E+00
    symrel    1  0  0   0  1  0   0  0  1       1  1  0  -1  0  0   0  0  1
              0  1  0   1  0  0   0  0  1       0  1  0  -1 -1  0   0  0  1
             -1  0  0   1  1  0   0  0  1       1  1  0   0 -1  0   0  0  1
             -1  0  0   0 -1  0   0  0  1      -1 -1  0   0  1  0   0  0  1
              1  0  0  -1 -1  0   0  0  1       0 -1  0   1  1  0   0  0  1
             -1 -1  0   1  0  0   0  0  1       0 -1  0  -1  0  0   0  0  1
     tnons    0.0000000  0.0000000  0.0000000     0.0000000  0.0000000  0.0000000
              0.0000000  0.0000000  0.5000000     0.0000000  0.0000000  0.0000000
              0.0000000  0.0000000  0.5000000     0.0000000  0.0000000  0.5000000
              0.0000000  0.0000000  0.0000000     0.0000000  0.0000000  0.5000000
              0.0000000  0.0000000  0.5000000     0.0000000  0.0000000  0.0000000
              0.0000000  0.0000000  0.0000000     0.0000000  0.0000000  0.5000000
    toldff    1.00000000E-08
    tolmxf    1.00000000E-05
      type    1  2  3  3  3  3  1  2  3  3  3  3  1  2  3  3  3  3  1  2
              3  3  3  3  1  2  3  3  3  3  1  2  3  3  3  3  1  2  3  3
              3  3  1  2  3  3  3  3  1  2  3  3  3  3  1  2  3  3  3  3
              1  2  3  3  3  3  1  2  3  3  3  3
    xangst    3.9646109799E+00  4.0141158269E+00  3.8175752936E+00
              3.9563756793E+00  3.9023814806E+00  6.6171305089E-01
              4.3118661566E+00  2.5401733853E+00  2.3753801827E-01
              3.9790227560E+00  3.9368527151E+00  2.1208751631E+00
              2.5776490983E+00  4.2601691216E+00  2.2057101696E-01
              4.9700039323E+00  4.9044246082E+00  1.1876900913E-01
             -1.4940207899E+00  5.4405117382E+00  3.8175752936E+00
             -1.4013736578E+00  5.3775125855E+00  6.6171305089E-01
             -4.3921603378E-02  5.0042723220E+00  2.3753801827E-01
             -1.4199030842E+00  5.4143611465E+00  2.1208751631E+00
             -2.4005901346E+00  4.3623941619E+00  2.2057101696E-01
             -1.7623543355E+00  6.7563619664E+00  1.1876900913E-01
              1.4940207899E+00  5.4405117382E+00  8.0593256199E+00
              1.4013736578E+00  5.3775125855E+00  4.9034633771E+00
              4.3921603378E-02  5.0042723220E+00  4.4792883445E+00
              1.4199030842E+00  5.4143611465E+00  6.3626254894E+00
              2.4005901346E+00  4.3623941619E+00  4.4623213432E+00
              1.7623543355E+00  6.7563619664E+00  4.3605193354E+00
              8.2668692858E+00  1.4263959113E+00  3.8175752936E+00
              8.3677517186E+00  1.4751311049E+00  6.6171305089E-01
              9.3697132956E+00  2.4640989367E+00  2.3753801827E-01
              8.3265752154E+00  1.4775084314E+00  2.1208751631E+00
              8.7472618228E+00  1.0222504031E-01  2.2057101696E-01
              6.9931427879E+00  1.8519373581E+00  1.1876900913E-01
              9.7608900757E+00  4.0141158269E+00  8.0593256199E+00
              9.7691253764E+00  3.9023814806E+00  4.9034633771E+00
              9.4136348990E+00  2.5401733853E+00  4.4792883445E+00
              9.7464782996E+00  3.9368527151E+00  6.3626254894E+00
              1.1147851957E+01  4.2601691216E+00  4.4623213432E+00
              8.7554971234E+00  4.9044246082E+00  4.3605193354E+00
              5.4586317698E+00  1.4263959113E+00  8.0593256199E+00
              5.3577493371E+00  1.4751311049E+00  4.9034633771E+00
              4.3557877600E+00  2.4640989367E+00  4.4792883445E+00
              5.3989258402E+00  1.4775084314E+00  6.3626254894E+00
              4.9782392329E+00  1.0222504031E-01  4.4623213432E+00
              6.7323582678E+00  1.8519373581E+00  4.3605193354E+00
              2.8981395479E+00  7.8725167669E+00  3.8175752936E+00
              2.9063748485E+00  7.9842511133E+00  6.6171305089E-01
              2.5508843712E+00  9.3464592086E+00  2.3753801827E-01
              2.8837277718E+00  7.9497798788E+00  2.1208751631E+00
              4.2851014296E+00  7.6264634722E+00  2.2057101696E-01
              1.8927465956E+00  6.9822079856E+00  1.1876900913E-01
              1.4041187580E+00  1.0460236683E+01  8.0593256199E+00
              1.5050011908E+00  1.0411501489E+01  4.9034633771E+00
              2.5069627678E+00  9.4225336572E+00  4.4792883445E+00
              1.4638246876E+00  1.0409124162E+01  6.3626254894E+00
              1.8845112949E+00  1.1784407554E+01  4.4623213432E+00
              1.3039226003E-01  1.0034695236E+01  4.3605193354E+00
             -2.8981395479E+00  7.8725167669E+00  8.0593256199E+00
             -2.9063748485E+00  7.9842511133E+00  4.9034633771E+00
             -2.5508843712E+00  9.3464592086E+00  4.4792883445E+00
             -2.8837277718E+00  7.9497798788E+00  6.3626254894E+00
             -4.2851014296E+00  7.6264634722E+00  4.4623213432E+00
             -1.8927465956E+00  6.9822079856E+00  4.3605193354E+00
             -1.4041187580E+00  1.0460236683E+01  3.8175752936E+00
             -1.5050011908E+00  1.0411501489E+01  6.6171305089E-01
             -2.5069627678E+00  9.4225336572E+00  2.3753801827E-01
             -1.4638246876E+00  1.0409124162E+01  2.1208751631E+00
             -1.8845112949E+00  1.1784407554E+01  2.2057101696E-01
             -1.3039226003E-01  1.0034695236E+01  1.1876900913E-01
              8.3567713177E+00  6.4461208557E+00  3.8175752936E+00
              8.2641241856E+00  6.5091200084E+00  6.6171305089E-01
              6.9066721312E+00  6.8823602718E+00  2.3753801827E-01
              8.2826536120E+00  6.4722714474E+00  2.1208751631E+00
              9.2633406625E+00  7.5242384319E+00  2.2057101696E-01
              8.6251048634E+00  5.1302706275E+00  1.1876900913E-01
              5.3687297379E+00  6.4461208557E+00  8.0593256199E+00
              5.4613768700E+00  6.5091200084E+00  4.9034633771E+00
              6.8188289244E+00  6.8823602718E+00  4.4792883445E+00
              5.4428474436E+00  6.4722714474E+00  6.3626254894E+00
              4.4621603932E+00  7.5242384319E+00  4.4623213432E+00
              5.1003961923E+00  5.1302706275E+00  4.3605193354E+00
     xcart    7.4920284034E+00  7.5855789994E+00  7.2141712457E+00
              7.4764659417E+00  7.3744317012E+00  1.2504563493E+00
              8.1482455355E+00  4.8002316617E+00  4.4888176640E-01
              7.5192627112E+00  7.4395728889E+00  4.0078729143E+00
              4.8710504904E+00  8.0505523049E+00  4.1681878309E-01
              9.3919455941E+00  9.2680186412E+00  2.2444088320E-01
             -2.8232899142E+00  1.0281076423E+01  7.2141712457E+00
             -2.6482122208E+00  1.0162025287E+01  1.2504563493E+00
             -8.2999795364E-02  9.4567034608E+00  4.4888176640E-01
             -2.6832277595E+00  1.0231658970E+01  4.0078729143E+00
             -4.5364575653E+00  8.2437296203E+00  4.1681878309E-01
             -3.3303667890E+00  1.2767672796E+01  2.2444088320E-01
              2.8232899142E+00  1.0281076423E+01  1.5229917074E+01
              2.6482122208E+00  1.0162025287E+01  9.2662021778E+00
              8.2999795364E-02  9.4567034608E+00  8.4646275950E+00
              2.6832277595E+00  1.0231658970E+01  1.2023618743E+01
              4.5364575653E+00  8.2437296203E+00  8.4325646116E+00
              3.3303667890E+00  1.2767672796E+01  8.2401867118E+00
              1.5622117734E+01  2.6954974235E+00  7.2141712457E+00
              1.5812757889E+01  2.7875935855E+00  1.2504563493E+00
              1.7706190720E+01  4.6564717991E+00  4.4888176640E-01
              1.5734945580E+01  2.7920860812E+00  4.0078729143E+00
              1.6529927995E+01  1.9317731535E-01  4.1681878309E-01
              1.3215123668E+01  3.4996541549E+00  2.2444088320E-01
              1.8445407648E+01  7.5855789994E+00  1.5229917074E+01
              1.8460970109E+01  7.3744317012E+00  9.2662021778E+00
              1.7789190516E+01  4.8002316617E+00  8.4646275950E+00
              1.8418173340E+01  7.4395728889E+00  1.2023618743E+01
              2.1066385561E+01  8.0505523049E+00  8.4325646116E+00
              1.6545490457E+01  9.2680186412E+00  8.2401867118E+00
              1.0315318318E+01  2.6954974235E+00  1.5229917074E+01
              1.0124678163E+01  2.7875935855E+00  9.2662021778E+00
              8.2312453308E+00  4.6564717991E+00  8.4646275950E+00
              1.0202490471E+01  2.7920860812E+00  1.2023618743E+01
              9.4075080557E+00  1.9317731535E-01  8.4325646116E+00
              1.2722312383E+01  3.4996541549E+00  8.2401867118E+00
              5.4766896222E+00  1.4876899530E+01  7.2141712457E+00
              5.4922520838E+00  1.5088046828E+01  1.2504563493E+00
              4.8204724901E+00  1.7662246868E+01  4.4888176640E-01
              5.4494553143E+00  1.5022905640E+01  4.0078729143E+00
              8.0976675352E+00  1.4411926224E+01  4.1681878309E-01
              3.5767724315E+00  1.3194459888E+01  2.2444088320E-01
              2.6533997080E+00  1.9766981106E+01  1.5229917074E+01
              2.8440398630E+00  1.9674884944E+01  9.2662021778E+00
              4.7374726947E+00  1.7806006730E+01  8.4646275950E+00
              2.7662275549E+00  1.9670392448E+01  1.2023618743E+01
              3.5612099698E+00  2.2269301214E+01  8.4325646116E+00
              2.4640564249E-01  1.8962824374E+01  8.2401867118E+00
             -5.4766896222E+00  1.4876899530E+01  1.5229917074E+01
             -5.4922520838E+00  1.5088046828E+01  9.2662021778E+00
             -4.8204724901E+00  1.7662246868E+01  8.4646275950E+00
             -5.4494553143E+00  1.5022905640E+01  1.2023618743E+01
             -8.0976675352E+00  1.4411926224E+01  8.4325646116E+00
             -3.5767724315E+00  1.3194459888E+01  8.2401867118E+00
             -2.6533997080E+00  1.9766981106E+01  7.2141712457E+00
             -2.8440398630E+00  1.9674884944E+01  1.2504563493E+00
             -4.7374726947E+00  1.7806006730E+01  4.4888176640E-01
             -2.7662275549E+00  1.9670392448E+01  4.0078729143E+00
             -3.5612099698E+00  2.2269301214E+01  4.1681878309E-01
             -2.4640564249E-01  1.8962824374E+01  2.2444088320E-01
              1.5792007940E+01  1.2181402106E+01  7.2141712457E+00
              1.5616930246E+01  1.2300453243E+01  1.2504563493E+00
              1.3051717821E+01  1.3005775068E+01  4.4888176640E-01
              1.5651945785E+01  1.2230819559E+01  4.0078729143E+00
              1.7505175591E+01  1.4218748909E+01  4.1681878309E-01
              1.6299084815E+01  9.6948057333E+00  2.2444088320E-01
              1.0145428111E+01  1.2181402106E+01  1.5229917074E+01
              1.0320505805E+01  1.2300453243E+01  9.2662021778E+00
              1.2885718230E+01  1.3005775068E+01  8.4646275950E+00
              1.0285490266E+01  1.2230819559E+01  1.2023618743E+01
              8.4322604602E+00  1.4218748909E+01  8.4325646116E+00
              9.6383512366E+00  9.6948057333E+00  8.2401867118E+00
      xred    4.5770000000E-01  3.3770000000E-01  4.5000000000E-01
              4.5240000000E-01  3.2830000000E-01  7.8000000000E-02
              4.2100000000E-01  2.1370000000E-01  2.8000000000E-02
              4.5550000000E-01  3.3120000000E-01  2.5000000000E-01
              3.6700000000E-01  3.5840000000E-01  2.6000000000E-02
              5.6840000000E-01  4.1260000000E-01  1.4000000000E-02
              1.2000000000E-01  4.5770000000E-01  4.5000000000E-01
              1.2410000000E-01  4.5240000000E-01  7.8000000000E-02
              2.0730000000E-01  4.2100000000E-01  2.8000000000E-02
              1.2430000000E-01  4.5550000000E-01  2.5000000000E-01
              8.6000000000E-03  3.6700000000E-01  2.6000000000E-02
              1.5580000000E-01  5.6840000000E-01  1.4000000000E-02
              3.3770000000E-01  4.5770000000E-01  9.5000000000E-01
              3.2830000000E-01  4.5240000000E-01  5.7800000000E-01
              2.1370000000E-01  4.2100000000E-01  5.2800000000E-01
              3.3120000000E-01  4.5550000000E-01  7.5000000000E-01
              3.5840000000E-01  3.6700000000E-01  5.2600000000E-01
              4.1260000000E-01  5.6840000000E-01  5.1400000000E-01
              6.6230000000E-01  1.2000000000E-01  4.5000000000E-01
              6.7170000000E-01  1.2410000000E-01  7.8000000000E-02
              7.8630000000E-01  2.0730000000E-01  2.8000000000E-02
              6.6880000000E-01  1.2430000000E-01  2.5000000000E-01
              6.4160000000E-01  8.6000000000E-03  2.6000000000E-02
              5.8740000000E-01  1.5580000000E-01  1.4000000000E-02
              8.8000000000E-01  3.3770000000E-01  9.5000000000E-01
              8.7590000000E-01  3.2830000000E-01  5.7800000000E-01
              7.9270000000E-01  2.1370000000E-01  5.2800000000E-01
              8.7570000000E-01  3.3120000000E-01  7.5000000000E-01
              9.9140000000E-01  3.5840000000E-01  5.2600000000E-01
              8.4420000000E-01  4.1260000000E-01  5.1400000000E-01
              4.5770000000E-01  1.2000000000E-01  9.5000000000E-01
              4.5240000000E-01  1.2410000000E-01  5.7800000000E-01
              4.2100000000E-01  2.0730000000E-01  5.2800000000E-01
              4.5550000000E-01  1.2430000000E-01  7.5000000000E-01
              3.6700000000E-01  8.6000000000E-03  5.2600000000E-01
              5.6840000000E-01  1.5580000000E-01  5.1400000000E-01
              5.4230000000E-01  6.6230000000E-01  4.5000000000E-01
              5.4760000000E-01  6.7170000000E-01  7.8000000000E-02
              5.7900000000E-01  7.8630000000E-01  2.8000000000E-02
              5.4450000000E-01  6.6880000000E-01  2.5000000000E-01
              6.3300000000E-01  6.4160000000E-01  2.6000000000E-02
              4.3160000000E-01  5.8740000000E-01  1.4000000000E-02
              5.4230000000E-01  8.8000000000E-01  9.5000000000E-01
              5.4760000000E-01  8.7590000000E-01  5.7800000000E-01
              5.7900000000E-01  7.9270000000E-01  5.2800000000E-01
              5.4450000000E-01  8.7570000000E-01  7.5000000000E-01
              6.3300000000E-01  9.9140000000E-01  5.2600000000E-01
              4.3160000000E-01  8.4420000000E-01  5.1400000000E-01
              1.2000000000E-01  6.6230000000E-01  9.5000000000E-01
              1.2410000000E-01  6.7170000000E-01  5.7800000000E-01
              2.0730000000E-01  7.8630000000E-01  5.2800000000E-01
              1.2430000000E-01  6.6880000000E-01  7.5000000000E-01
              8.6000000000E-03  6.4160000000E-01  5.2600000000E-01
              1.5580000000E-01  5.8740000000E-01  5.1400000000E-01
              3.3770000000E-01  8.8000000000E-01  4.5000000000E-01
              3.2830000000E-01  8.7590000000E-01  7.8000000000E-02
              2.1370000000E-01  7.9270000000E-01  2.8000000000E-02
              3.3120000000E-01  8.7570000000E-01  2.5000000000E-01
              3.5840000000E-01  9.9140000000E-01  2.6000000000E-02
              4.1260000000E-01  8.4420000000E-01  1.4000000000E-02
              8.8000000000E-01  5.4230000000E-01  4.5000000000E-01
              8.7590000000E-01  5.4760000000E-01  7.8000000000E-02
              7.9270000000E-01  5.7900000000E-01  2.8000000000E-02
              8.7570000000E-01  5.4450000000E-01  2.5000000000E-01
              9.9140000000E-01  6.3300000000E-01  2.6000000000E-02
              8.4420000000E-01  4.3160000000E-01  1.4000000000E-02
              6.6230000000E-01  5.4230000000E-01  9.5000000000E-01
              6.7170000000E-01  5.4760000000E-01  5.7800000000E-01
              7.8630000000E-01  5.7900000000E-01  5.2800000000E-01
              6.6880000000E-01  5.4450000000E-01  7.5000000000E-01
              6.4160000000E-01  6.3300000000E-01  5.2600000000E-01
              5.8740000000E-01  4.3160000000E-01  5.1400000000E-01
    zatnum    13.000  15.000   8.000

================================================================================

 chkinp: Checking input parameters for consistency.

================================================================================
== DATASET  1 ==================================================================

 Real(R)+Recip(G) space primitive vectors, cartesian coordinates (Bohr,Bohr^-1):
 R(1)= 25.9374361  0.0000000  0.0000000  G(1)=  0.0385543  0.0222593  0.0000000
 R(2)=-12.9687180 22.4624785  0.0000000  G(2)=  0.0000000  0.0445187  0.0000000
 R(3)=  0.0000000  0.0000000 16.0314917  G(3)=  0.0000000  0.0000000  0.0623772
 Unit cell volume ucvol=  9.3402532E+03 bohr^3

 getcut: wavevector=  0.0000  0.0000  0.0000  ngfft= 128 128  80
         ecut(hartree)=     30.000   => boxcut(ratio)=   2.00151
--- Pseudopotential description ------------------------------------------------
- pspini: atom type   1  psp file is Al.psp
- pspatm: opening atomic psp file    Al.psp
  Troullier-Martins psp for element  Al        Thu Oct 27 17:31:05 EDT 1994
  13.00000   3.00000    940714                zatom, zion, pspdat
    1    1    2    2      2001   0.00000      pspcod,pspxc,lmax,lloc,mmax,r2well
    0   4.657  11.889    1   2.2761078        l,e99.0,e99.9,nproj,rcpsp
   0.00000000   0.00000000   0.00000000   0.00000000     rms, ekb1, ekb2, epsatm
    1   1.829   2.761    1   2.2761078        l,e99.0,e99.9,nproj,rcpsp
   0.00000000   0.00000000   0.00000000   0.00000000     rms, ekb1, ekb2, epsatm
    2   0.000   0.000    0   2.2761078        l,e99.0,e99.9,nproj,rcpsp
   0.00000000   0.00000000   0.00000000   0.00000000     rms, ekb1, ekb2, epsatm
    2.09673076353074    0.12648111154518    1.01742091001718   rchrg,fchrg,qchrg
 pspatm: epsatm=    0.22155260  l,   ekb(1:nproj) below:
                                0    2.540658
                                1    1.353815
                                2
 pspatm: atomic psp has been read  and splines computed

- pspini: atom type   2  psp file is P.psp
- pspatm: opening atomic psp file    P.psp
  Troullier-Martins psp for element  P         Thu Oct 27 17:31:36 EDT 1994
  15.00000   5.00000    940714                zatom, zion, pspdat
    1    1    2    2      2001   0.00000      pspcod,pspxc,lmax,lloc,mmax,r2well
    0   7.739  19.130    1   1.8300797        l,e99.0,e99.9,nproj,rcpsp
   0.00000000   0.00000000   0.00000000   0.00000000     rms, ekb1, ekb2, epsatm
    1   3.504   7.779    1   1.8300797        l,e99.0,e99.9,nproj,rcpsp
   0.00000000   0.00000000   0.00000000   0.00000000     rms, ekb1, ekb2, epsatm
    2   0.000   0.000    0   1.8300797        l,e99.0,e99.9,nproj,rcpsp
   0.00000000   0.00000000   0.00000000   0.00000000     rms, ekb1, ekb2, epsatm
    1.56401531320115    0.42173148239792    1.40801087359005   rchrg,fchrg,qchrg
 pspatm: epsatm=    1.67646949  l,   ekb(1:nproj) below:
                                0    4.507150
                                1    2.600920
                                2
 pspatm: atomic psp has been read  and splines computed

- pspini: atom type   3  psp file is O.psp
- pspatm: opening atomic psp file    O.psp
  Troullier-Martins psp for element  O         Thu Oct 27 17:29:57 EDT 1994
   8.00000   6.00000    940714                zatom, zion, pspdat
    1    1    1    1      2001   0.00000      pspcod,pspxc,lmax,lloc,mmax,r2well
    0   5.480  16.893    1   1.4482335        l,e99.0,e99.9,nproj,rcpsp
   0.00000000   0.00000000   0.00000000   0.00000000     rms, ekb1, ekb2, epsatm
    1  20.911  28.075    0   1.4482335        l,e99.0,e99.9,nproj,rcpsp
   0.00000000   0.00000000   0.00000000   0.00000000     rms, ekb1, ekb2, epsatm
    0.56990156784787    3.95561236318184    0.63894027514378   rchrg,fchrg,qchrg
 pspatm: epsatm=    1.57752239  l,   ekb(1:nproj) below:
                                0    5.670783
                                1
 pspatm: atomic psp has been read  and splines computed

   3.78229785E+04                                ecore*ucvol(ha*bohr**3)
--------------------------------------------------------------------------------

-inwffil : will read wavefunctions from disk file in_WFK
 newkpt: treating    201 bands with npw=   36656 for ikpt=   1
 
 setup2: Arith. and geom. avg. npw (full set) are   73311.000   73311.000

================================================================================

 BROYDEN STEP NUMBER   0  ------------------------------------------------------

     iter   Etot(hartree)      deltaE(h)  residm     vres2    diffor    maxfor
 ETOT  1  -916.58770364646    -9.166E+02 1.183E-12 4.316E-09 6.297E-02 6.297E-02
 ETOT  2  -916.58770364590     5.621E-10 8.084E-13 1.387E-09 1.374E-07 6.297E-02
 ETOT  3  -916.58770364629    -3.961E-10 8.815E-13 7.365E-10 5.424E-08 6.297E-02
 ETOT  4  -916.58770364646    -1.687E-10 5.538E-13 9.032E-10 6.275E-08 6.297E-02
 ETOT  5  -916.58770364652    -5.468E-11 6.012E-13 3.639E-10 7.406E-08 6.297E-02
 ETOT  6  -916.58770364640     1.139E-10 3.791E-13 3.872E-10 3.372E-08 6.297E-02
 ETOT  7  -916.58770364629     1.139E-10 4.103E-13 2.744E-10 5.651E-09 6.297E-02
 ETOT  8  -916.58770364641    -1.164E-10 2.596E-13 2.914E-10 2.681E-09 6.297E-02

 At SCF step    8, forces are converged :
  for the second time, max diff in force=  2.681E-09 < toldff=  1.000E-08

 Cartesian components of stress tensor (hartree/bohr^3)
  sigma(1 1)= -2.58795376E-04  sigma(3 2)=  0.00000000E+00
  sigma(2 2)= -2.58795376E-04  sigma(3 1)=  0.00000000E+00
  sigma(3 3)= -4.12692333E-04  sigma(2 1)=  0.00000000E+00
 
 Unit cell characteristics :
  acell=  2.5937436051E+01  2.5937436051E+01  1.6031491657E+01
  rprim=  1.0000000000E+00  0.0000000000E+00  0.0000000000E+00
         -5.0000000000E-01  8.6602540378E-01  0.0000000000E+00
          6.1232339957E-17  1.0605752387E-16  1.0000000000E+00
  ucvol=  9.3402532474E+03 Bohr^3
  lengths=  2.5937436051E+01  2.5937436051E+01  1.6031491657E+01 Bohr
  angles (23,13,12)=  90.00000000  90.00000000 120.00000000 degrees
 Cartesian coordinates (bohr)
  7.49202840337068E+00  7.58557899935077E+00  7.21417124570443E+00
  7.47646594174000E+00  7.37443170117518E+00  1.25045634925543E+00
  8.14824553546442E+00  4.80023166171531E+00  4.48881766399386E-01
  7.51926271122437E+00  7.43957288891020E+00  4.00787291428024E+00
  4.87105049040337E+00  8.05055230490765E+00  4.16818783085145E-01
  9.39194559411640E+00  9.26801864119670E+00  2.24440883199693E-01
 -2.82328991416617E+00  1.02810764228690E+01  7.21417124570443E+00
 -2.64821222082100E+00  1.01620252866636E+01  1.25045634925543E+00
 -8.29997953636336E-02  9.45670346084298E+00  4.48881766399386E-01
 -2.68322775949003E+00  1.02316589701045E+01  4.00787291428024E+00
 -4.53645756534371E+00  8.24372962025979E+00  4.16818783085145E-01
 -3.33036678896588E+00  1.27676727960645E+01  2.24440883199693E-01
  2.82328991416617E+00  1.02810764228690E+01  1.52299170742649E+01
  2.64821222082100E+00  1.01620252866636E+01  9.26620217781591E+00
  8.29997953636386E-02  9.45670346084298E+00  8.46462759495986E+00
  2.68322775949004E+00  1.02316589701045E+01  1.20236187428407E+01
  4.53645756534371E+00  8.24372962025979E+00  8.43256461164562E+00
  3.33036678896588E+00  1.27676727960645E+01  8.24018671176017E+00
  1.56221177335993E+01  2.69549742351819E+00  7.21417124570443E+00
  1.58127578885751E+01  2.78759358548839E+00  1.25045634925543E+00
  1.77061907203081E+01  4.65647179912767E+00  4.48881766399386E-01
  1.57349455804217E+01  2.79208608119426E+00  4.00787291428024E+00
  1.65299279953891E+01  1.93177315352137E-01  4.16818783085145E-01
  1.32151236680539E+01  3.49965415486778E+00  2.24440883199693E-01
  1.84454076477655E+01  7.58557899935077E+00  1.52299170742649E+01
  1.84609701093961E+01  7.37443170117518E+00  9.26620217781591E+00
  1.77891905156717E+01  4.80023166171531E+00  8.46462759495986E+00
  1.84181733399118E+01  7.43957288891020E+00  1.20236187428407E+01
  2.10663855607328E+01  8.05055230490766E+00  8.43256461164562E+00
  1.65454904570197E+01  9.26801864119670E+00  8.24018671176017E+00
  1.03153183175368E+01  2.69549742351819E+00  1.52299170742649E+01
  1.01246781625610E+01  2.78759358548839E+00  9.26620217781591E+00
  8.23124533082805E+00  4.65647179912767E+00  8.46462759495986E+00
  1.02024904707144E+01  2.79208608119426E+00  1.20236187428407E+01
  9.40750805574708E+00  1.93177315352138E-01  8.43256461164562E+00
  1.27223123830823E+01  3.49965415486778E+00  8.24018671176017E+00
  5.47668962219740E+00  1.48768995299675E+01  7.21417124570443E+00
  5.49225208382808E+00  1.50880468281431E+01  1.25045634925543E+00
  4.82047249010365E+00  1.76622468676029E+01  4.48881766399386E-01
  5.44945531434371E+00  1.50229056404080E+01  4.00787291428024E+00
  8.09766753516471E+00  1.44119262244106E+01  4.16818783085145E-01
  3.57677243145168E+00  1.31944598881215E+01  2.24440883199693E-01
  2.65339970803123E+00  1.97669811058000E+01  1.52299170742649E+01
  2.84403986300708E+00  1.96748849438298E+01  9.26620217781591E+00
  4.73747269474002E+00  1.78060067301906E+01  8.46462759495986E+00
  2.76622755485368E+00  1.96703924481240E+01  1.20236187428407E+01
  3.56120996982100E+00  2.22693012139661E+01  8.43256461164562E+00
  2.46405642485799E-01  1.89628243744505E+01  8.24018671176017E+00
 -5.47668962219739E+00  1.48768995299675E+01  1.52299170742649E+01
 -5.49225208382807E+00  1.50880468281431E+01  9.26620217781591E+00
 -4.82047249010365E+00  1.76622468676029E+01  8.46462759495986E+00
 -5.44945531434370E+00  1.50229056404080E+01  1.20236187428407E+01
 -8.09766753516470E+00  1.44119262244106E+01  8.43256461164562E+00
 -3.57677243145167E+00  1.31944598881215E+01  8.24018671176017E+00
 -2.65339970803122E+00  1.97669811058000E+01  7.21417124570443E+00
 -2.84403986300707E+00  1.96748849438298E+01  1.25045634925543E+00
 -4.73747269474001E+00  1.78060067301906E+01  4.48881766399386E-01
 -2.76622755485366E+00  1.96703924481240E+01  4.00787291428024E+00
 -3.56120996982099E+00  2.22693012139661E+01  4.16818783085145E-01
 -2.46405642485788E-01  1.89628243744505E+01  2.24440883199693E-01
  1.57920079397342E+01  1.21814021064493E+01  7.21417124570443E+00
  1.56169302463891E+01  1.23004532426547E+01  1.25045634925543E+00
  1.30517178209317E+01  1.30057750684753E+01  4.48881766399386E-01
  1.56519457850581E+01  1.22308195592138E+01  4.00787291428024E+00
  1.75051755909118E+01  1.42187489090584E+01  4.16818783085145E-01
  1.62990848145340E+01  9.69480573325375E+00  2.24440883199693E-01
  1.01454281114019E+01  1.21814021064493E+01  1.52299170742649E+01
  1.03205058047471E+01  1.23004532426547E+01  9.26620217781591E+00
  1.28857182302044E+01  1.30057750684753E+01  8.46462759495986E+00
  1.02854902660780E+01  1.22308195592138E+01  1.20236187428407E+01
  8.43226046022436E+00  1.42187489090584E+01  8.43256461164562E+00
  9.63835123660219E+00  9.69480573325375E+00  8.24018671176017E+00
 Cartesian forces (hart/bohr); max,rms= 6.29717E-02 2.34119E-02 (free atoms)
 -1.17856536056946E-02 -1.91277910678730E-02  5.00190549753987E-03
  9.42555725828797E-03  2.51898017018029E-02 -2.84397805145811E-02
  8.72440629801326E-03 -4.29467621908012E-02 -2.22238030231258E-02
  2.64107906888310E-03  6.57943255965729E-03  6.29717166781444E-02
 -2.70314762045057E-02  5.44703366023432E-03 -1.81681245288765E-02
 -8.41992243143446E-04 -1.67957300821786E-02  8.58085890899159E-04
  1.06723261802118E-02 -1.97705709566717E-02  5.00190549753987E-03
 -1.71022295609098E-02  2.07576728814037E-02 -2.84397805145811E-02
  4.15551902165295E-02 -1.39178236083842E-02 -2.22238030231258E-02
 -4.37741620470814E-03  5.57695784688476E-03  6.29717166781444E-02
 -1.82330076272847E-02 -2.06864282647793E-02 -1.81681245288765E-02
  1.41245328047014E-02 -9.12705171344097E-03  8.58085890899157E-04
 -1.06723261802118E-02 -1.97705709566717E-02  5.00190549753987E-03
  1.71022295609098E-02  2.07576728814036E-02 -2.84397805145811E-02
 -4.15551902165295E-02 -1.39178236083842E-02 -2.22238030231258E-02
  4.37741620470814E-03  5.57695784688476E-03  6.29717166781444E-02
  1.82330076272847E-02 -2.06864282647793E-02 -1.81681245288765E-02
 -1.41245328047014E-02 -9.12705171344096E-03  8.58085890899159E-04
  2.24579797859064E-02 -6.42779888798728E-04  5.00190549753987E-03
 -2.65277868191978E-02 -4.43212882039927E-03 -2.84397805145811E-02
  3.28307839185163E-02  2.90289385824170E-02 -2.22238030231258E-02
 -7.01849527359123E-03 -1.00247471277253E-03  6.29717166781444E-02
  8.79846857722100E-03 -2.61334619250136E-02 -1.81681245288765E-02
  1.49665250478449E-02  7.66867836873763E-03  8.58085890899156E-04
  1.17856536056946E-02 -1.91277910678730E-02  5.00190549753987E-03
 -9.42555725828797E-03  2.51898017018029E-02 -2.84397805145811E-02
 -8.72440629801326E-03 -4.29467621908012E-02 -2.22238030231258E-02
 -2.64107906888310E-03  6.57943255965729E-03  6.29717166781444E-02
  2.70314762045057E-02  5.44703366023431E-03 -1.81681245288765E-02
  8.41992243143446E-04 -1.67957300821786E-02  8.58085890899159E-04
 -2.24579797859064E-02 -6.42779888798718E-04  5.00190549753987E-03
  2.65277868191978E-02 -4.43212882039929E-03 -2.84397805145811E-02
 -3.28307839185163E-02  2.90289385824171E-02 -2.22238030231258E-02
  7.01849527359123E-03 -1.00247471277253E-03  6.29717166781444E-02
 -8.79846857722100E-03 -2.61334619250136E-02 -1.81681245288765E-02
 -1.49665250478449E-02  7.66867836873764E-03  8.58085890899158E-04
  1.17856536056946E-02  1.91277910678730E-02  5.00190549753986E-03
 -9.42555725828797E-03 -2.51898017018029E-02 -2.84397805145811E-02
 -8.72440629801326E-03  4.29467621908012E-02 -2.22238030231258E-02
 -2.64107906888310E-03 -6.57943255965729E-03  6.29717166781444E-02
  2.70314762045057E-02 -5.44703366023432E-03 -1.81681245288765E-02
  8.41992243143446E-04  1.67957300821786E-02  8.58085890899156E-04
  2.24579797859064E-02  6.42779888798713E-04  5.00190549753986E-03
 -2.65277868191978E-02  4.43212882039928E-03 -2.84397805145811E-02
  3.28307839185163E-02 -2.90289385824171E-02 -2.22238030231258E-02
 -7.01849527359123E-03  1.00247471277253E-03  6.29717166781444E-02
  8.79846857722100E-03  2.61334619250136E-02 -1.81681245288765E-02
  1.49665250478449E-02 -7.66867836873763E-03  8.58085890899157E-04
 -1.17856536056946E-02  1.91277910678730E-02  5.00190549753987E-03
  9.42555725828797E-03 -2.51898017018029E-02 -2.84397805145811E-02
  8.72440629801326E-03  4.29467621908012E-02 -2.22238030231258E-02
  2.64107906888310E-03 -6.57943255965729E-03  6.29717166781444E-02
 -2.70314762045057E-02 -5.44703366023431E-03 -1.81681245288765E-02
 -8.41992243143446E-04  1.67957300821786E-02  8.58085890899156E-04
 -2.24579797859064E-02  6.42779888798733E-04  5.00190549753987E-03
  2.65277868191978E-02  4.43212882039928E-03 -2.84397805145811E-02
 -3.28307839185163E-02 -2.90289385824170E-02 -2.22238030231258E-02
  7.01849527359123E-03  1.00247471277253E-03  6.29717166781444E-02
 -8.79846857722099E-03  2.61334619250137E-02 -1.81681245288765E-02
 -1.49665250478449E-02 -7.66867836873763E-03  8.58085890899159E-04
 -1.06723261802118E-02  1.97705709566717E-02  5.00190549753987E-03
  1.71022295609098E-02 -2.07576728814037E-02 -2.84397805145811E-02
 -4.15551902165296E-02  1.39178236083842E-02 -2.22238030231258E-02
  4.37741620470814E-03 -5.57695784688476E-03  6.29717166781444E-02
  1.82330076272847E-02  2.06864282647793E-02 -1.81681245288765E-02
 -1.41245328047014E-02  9.12705171344097E-03  8.58085890899157E-04
  1.06723261802118E-02  1.97705709566717E-02  5.00190549753986E-03
 -1.71022295609098E-02 -2.07576728814036E-02 -2.84397805145811E-02
  4.15551902165296E-02  1.39178236083842E-02 -2.22238030231258E-02
 -4.37741620470814E-03 -5.57695784688475E-03  6.29717166781444E-02
 -1.82330076272847E-02  2.06864282647793E-02 -1.81681245288765E-02
  1.41245328047014E-02  9.12705171344096E-03  8.58085890899156E-04
 
 At the end of Broyden step  0, total energy= -9.16587703646407E+02 Ha.


 BROYDEN STEP NUMBER   1  ------------------------------------------------------

     iter   Etot(hartree)      deltaE(h)  residm     vres2    diffor    maxfor
 ETOT  1  -915.28590997337    -9.153E+02 5.786E-05 3.979E+04 4.178E-01 4.808E-01
 ETOT  2  -916.42468578919    -1.139E+00 6.146E-04 1.834E+04 5.079E-01 1.378E-01
 ETOT  3  -916.48575199743    -6.107E-02 5.104E-04 1.549E+04 4.270E-02 1.307E-01
 ETOT  4  -916.56032347637    -7.457E-02 1.110E-04 1.391E+04 9.708E-02 1.180E-01
 ETOT  5  -916.60111388493    -4.079E-02 1.038E-04 1.146E+04 9.475E-02 1.004E-01
 ETOT  6  -916.61503059509    -1.392E-02 3.526E-05 8.782E+03 4.858E-02 8.139E-02
 ETOT  7  -916.63159108389    -1.656E-02 3.549E-05 7.048E+03 5.306E-02 7.561E-02
 ETOT  8  -916.64995234225    -1.836E-02 9.401E-05 4.309E+03 2.299E-02 5.404E-02
 ETOT  9  -916.66430520260    -1.435E-02 8.604E-04 1.465E+03 3.339E-02 5.324E-02
 ETOT 10  -916.66856574527    -4.261E-03 4.191E-04 1.194E+03 5.034E-02 2.359E-02
 ETOT 11  -916.67037669008    -1.811E-03 8.677E-03 8.192E+02 2.595E-02 2.885E-02
 ETOT 12  -916.67098861542    -6.119E-04 6.890E-04 6.796E+02 1.867E-02 2.106E-02
 ETOT 13  -916.67314434538    -2.156E-03 1.568E-04 4.009E+02 8.160E-03 1.927E-02
 ETOT 14  -916.67322877237    -8.443E-05 3.917E-05 3.480E+02 5.059E-03 1.764E-02
 ETOT 15  -916.67350598374    -2.772E-04 5.557E-06 2.805E+02 3.132E-03 1.682E-02
 ETOT 16  -916.67401078359    -5.048E-04 1.049E-05 1.681E+02 2.844E-03 1.500E-02
 ETOT 17  -916.67437070955    -3.599E-04 2.370E-05 3.425E+01 6.057E-03 1.207E-02
 ETOT 18  -916.67454618855    -1.755E-04 2.336E-06 2.302E+01 6.777E-03 1.614E-02
 ETOT 19  -916.67473039230    -1.842E-04 4.609E-06 2.957E+00 3.430E-03 1.590E-02
 ETOT 20  -916.67480692749    -7.654E-05 4.319E-06 2.621E+00 1.804E-03 1.645E-02
 ETOT 21  -916.67482661509    -1.969E-05 7.372E-07 1.524E+00 2.902E-03 1.355E-02
 ETOT 22  -916.67482929191    -2.677E-06 8.156E-07 1.524E+00 1.100E-03 1.443E-02
 ETOT 23  -916.67483168881    -2.397E-06 5.351E-08 1.686E+00 3.964E-04 1.403E-02
 ETOT 24  -916.67483226546    -5.766E-07 5.006E-08 1.347E+00 4.160E-04 1.445E-02
 ETOT 25  -916.67483223819     2.727E-08 2.612E-08 1.142E+00 1.233E-04 1.433E-02
 ETOT 26  -916.67483233030    -9.211E-08 3.392E-09 1.302E+00 1.075E-04 1.433E-02
 ETOT 27  -916.67483233116    -8.579E-10 4.969E-09 1.074E+00 1.158E-04 1.434E-02
 ETOT 28  -916.67483237353    -4.237E-08 8.660E-10 1.180E+00 6.380E-05 1.437E-02
 ETOT 29  -916.67483231713     5.640E-08 4.655E-09 9.822E-01 1.013E-04 1.433E-02
 ETOT 30  -916.67483237967    -6.255E-08 1.676E-09 1.128E+00 7.627E-05 1.436E-02
 ETOT 31  -916.67483237316     6.513E-09 3.181E-09 9.508E-01 7.931E-05 1.434E-02
 ETOT 32  -916.67483247857    -1.054E-07 2.158E-09 8.755E-01 3.607E-05 1.437E-02
 ETOT 33  -916.67483241162     6.695E-08 4.526E-09 7.374E-01 7.676E-05 1.433E-02
 ETOT 34  -916.67483271863    -3.070E-07 8.356E-09 5.752E-01 4.917E-05 1.433E-02
 ETOT 35  -916.67483358664    -8.680E-07 2.844E-08 4.540E-01 3.326E-04 1.429E-02
 ETOT 36  -916.67483369325    -1.066E-07 5.944E-09 3.536E-01 1.510E-04 1.437E-02
 ETOT 37  -916.67483433273    -6.395E-07 1.782E-08 2.016E-01 1.416E-04 1.435E-02
 ETOT 38  -916.67483476973    -4.370E-07 7.602E-08 5.918E-03 2.340E-04 1.444E-02
 ETOT 39  -916.67483476656     3.173E-09 1.192E-08 4.232E-03 1.397E-04 1.430E-02
 ETOT 40  -916.67483480755    -4.099E-08 1.917E-09 2.631E-03 3.838E-05 1.433E-02
 ETOT 41  -916.67483481001    -2.464E-09 8.279E-10 2.690E-03 1.234E-05 1.434E-02
 ETOT 42  -916.67483480953     4.876E-10 1.886E-10 2.184E-03 3.404E-06 1.434E-02
 ETOT 43  -916.67483480996    -4.361E-10 2.137E-10 2.000E-03 1.072E-06 1.434E-02
 ETOT 44  -916.67483481030    -3.358E-10 7.956E-12 1.858E-03 5.465E-06 1.434E-02
 ETOT 45  -916.67483481068    -3.863E-10 1.886E-11 1.487E-03 8.984E-06 1.435E-02
 ETOT 46  -916.67483481249    -1.809E-09 1.845E-10 3.987E-04 8.206E-06 1.434E-02
 ETOT 47  -916.67483481335    -8.530E-10 3.372E-10 1.921E-04 6.607E-06 1.435E-02
 ETOT 48  -916.67483481409    -7.467E-10 3.375E-11 9.510E-05 1.249E-05 1.434E-02
 ETOT 49  -916.67483481537    -1.282E-09 8.859E-11 3.195E-04 8.536E-06 1.434E-02
 ETOT 50  -916.67483481556    -1.803E-10 8.300E-12 2.569E-04 6.159E-06 1.434E-02
 ETOT 51  -916.67483481545     1.043E-10 5.537E-12 2.891E-04 3.478E-06 1.434E-02
 ETOT 52  -916.67483481561    -1.563E-10 2.482E-12 2.299E-04 3.303E-06 1.434E-02
 ETOT 53  -916.67483481527     3.399E-10 1.689E-12 2.155E-04 7.879E-07 1.434E-02
 ETOT 54  -916.67483481540    -1.373E-10 2.537E-12 2.642E-04 2.896E-06 1.434E-02
 ETOT 55  -916.67483481569    -2.846E-10 1.653E-12 2.139E-04 2.687E-06 1.434E-02
 ETOT 56  -916.67483481533     3.562E-10 7.147E-13 2.615E-04 2.555E-06 1.434E-02
 ETOT 57  -916.67483481546    -1.301E-10 5.465E-13 2.155E-04 2.432E-06 1.434E-02
 ETOT 58  -916.67483481539     7.287E-11 5.781E-13 2.608E-04 2.392E-06 1.434E-02
 ETOT 59  -916.67483481548    -9.379E-11 2.756E-13 2.614E-04 3.925E-08 1.434E-02
 ETOT 60  -916.67483481551    -2.979E-11 5.837E-13 2.283E-04 1.708E-06 1.434E-02
 ETOT 61  -916.67483481544     7.094E-11 9.108E-14 2.283E-04 1.083E-08 1.434E-02
 ETOT 62  -916.67483481546    -1.808E-11 6.505E-13 2.668E-04 1.968E-06 1.434E-02
 ETOT 63  -916.67483481540     6.219E-11 4.950E-14 2.621E-04 2.233E-07 1.434E-02
 ETOT 64  -916.67483481547    -6.901E-11 3.627E-14 2.384E-04 1.206E-06 1.434E-02
 ETOT 65  -916.67483481552    -5.389E-11 4.077E-14 2.602E-04 1.110E-06 1.434E-02
 ETOT 66  -916.67483481532     2.030E-10 3.936E-14 2.381E-04 1.107E-06 1.434E-02
 ETOT 67  -916.67483481549    -1.672E-10 3.399E-14 2.584E-04 1.045E-06 1.434E-02
 ETOT 68  -916.67483481546     2.547E-11 2.338E-14 2.397E-04 7.182E-07 1.434E-02
 ETOT 69  -916.67483481552    -6.241E-11 5.614E-14 2.185E-04 1.039E-06 1.434E-02
 ETOT 70  -916.67483481574    -2.142E-10 3.125E-14 2.049E-04 5.791E-07 1.434E-02
 ETOT 71  -916.67483481572     1.251E-11 1.517E-14 1.961E-04 3.465E-07 1.434E-02
 ETOT 72  -916.67483481545     2.748E-10 7.001E-15 1.901E-04 2.168E-07 1.434E-02
 ETOT 73  -916.67483481562    -1.683E-10 3.234E-15 1.861E-04 1.402E-07 1.434E-02
 ETOT 74  -916.67483481543     1.831E-10 1.520E-15 1.833E-04 9.273E-08 1.434E-02
 ETOT 75  -916.67483481553    -9.300E-11 7.253E-16 1.814E-04 6.237E-08 1.434E-02
 ETOT 76  -916.67483481534     1.845E-10 3.492E-16 1.801E-04 4.245E-08 1.434E-02
 ETOT 77  -916.67483481536    -1.910E-11 1.690E-16 1.792E-04 2.913E-08 1.434E-02
 ETOT 78  -916.67483481551    -1.522E-10 8.214E-17 1.785E-04 2.011E-08 1.434E-02
 ETOT 79  -916.67483481535     1.628E-10 4.001E-17 1.781E-04 1.394E-08 1.434E-02
 ETOT 80  -916.67483481548    -1.272E-10 1.952E-17 1.778E-04 9.693E-09 1.434E-02
 ETOT 81  -916.67483481552    -4.172E-11 9.539E-18 1.775E-04 6.753E-09 1.434E-02

 At SCF step   81, forces are converged :
  for the second time, max diff in force=  6.753E-09 < toldff=  1.000E-08

 Cartesian components of stress tensor (hartree/bohr^3)
  sigma(1 1)=  2.44509313E-05  sigma(3 2)=  0.00000000E+00
  sigma(2 2)=  2.44509313E-05  sigma(3 1)=  0.00000000E+00
  sigma(3 3)= -3.39745621E-05  sigma(2 1)=  0.00000000E+00
 
 Unit cell characteristics :
  acell=  2.6178727631E+01  2.6178727631E+01  1.6180629912E+01
  rprim=  1.0000000000E+00  0.0000000000E+00  0.0000000000E+00
         -5.0000000000E-01  8.6602540378E-01  0.0000000000E+00
          6.1232339957E-17  1.0605752387E-16  1.0000000000E+00
  ucvol=  9.6033581461E+03 Bohr^3
  lengths=  2.6178727631E+01  2.6178727631E+01  1.6180629912E+01 Bohr
  angles (23,13,12)=  90.00000000  90.00000000 120.00000000 degrees
 Cartesian coordinates (bohr)
  7.54983018268256E+00  7.63684062390674E+00  7.28677164327585E+00
  7.55553148127441E+00  7.46845892997292E+00  1.23382452762765E+00
  8.23285285326967E+00  4.80154111618617E+00  4.31066835702942E-01
  7.59187878882334E+00  7.51542261689985E+00  4.10915475539048E+00
  4.88908210365710E+00  8.13094293763414E+00  4.02798983664020E-01
  9.47846745005023E+00  9.33728547288806E+00  2.27834632756011E-01
 -2.83878289361496E+00  1.03567650444150E+01  7.28677164327585E+00
 -2.69010941984008E+00  1.02775116668632E+01  1.23382452762765E+00
 -4.18301572978770E-02  9.53063027464382E+00  4.31066835702942E-01
 -2.71260751199973E+00  1.03324712020232E+01  4.10915475539048E+00
 -4.59706208888428E+00  8.29954077177198E+00  4.02798983664020E-01
 -3.34709269688334E+00  1.28772363371314E+01  2.27834632756011E-01
  2.83878289361496E+00  1.03567650444150E+01  1.53770865993084E+01
  2.69010941984009E+00  1.02775116668632E+01  9.32413948366020E+00
  4.18301572978793E-02  9.53063027464382E+00  8.52138179173549E+00
  2.71260751199973E+00  1.03324712020232E+01  1.21994697114230E+01
  4.59706208888429E+00  8.29954077177199E+00  8.49311393969656E+00
  3.34709269688335E+00  1.28772363371314E+01  8.31814958878856E+00
  1.57901145547568E+01  2.71992442050823E+00  7.28677164327585E+00
  1.59330867299398E+01  2.80905273689025E+00  1.23382452762765E+00
  1.79040446204868E+01  4.72908915845765E+00  4.31066835702942E-01
  1.58742413302313E+01  2.81704858512332E+00  4.10915475539048E+00
  1.66925834385129E+01  1.68597834137844E-01  4.02798983664020E-01
  1.33531674841207E+01  3.53995086424337E+00  2.27834632756011E-01
  1.86288974483718E+01  7.63684062390674E+00  1.53770865993084E+01
  1.86231961497799E+01  7.46845892997292E+00  9.32413948366020E+00
  1.79458747777847E+01  4.80154111618617E+00  8.52138179173549E+00
  1.85868488422310E+01  7.51542261689985E+00  1.21994697114230E+01
  2.12896455273972E+01  8.13094293763414E+00  8.49311393969656E+00
  1.67002601810041E+01  9.33728547288806E+00  8.31814958878856E+00
  1.03886130762975E+01  2.71992442050823E+00  1.53770865993084E+01
  1.02456409011145E+01  2.80905273689025E+00  9.32413948366020E+00
  8.27468301056755E+00  4.72908915845765E+00  8.52138179173549E+00
  1.03044863008231E+01  2.81704858512332E+00  1.21994697114230E+01
  9.48614419254139E+00  1.68597834137845E-01  8.49311393969656E+00
  1.28255601469336E+01  3.53995086424337E+00  8.31814958878856E+00
  5.53953363284461E+00  1.50346025433399E+01  7.28677164327585E+00
  5.53383233425275E+00  1.52029842372737E+01  1.23382452762765E+00
  4.85651096225750E+00  1.78699020510605E+01  4.31066835702942E-01
  5.49748502670383E+00  1.51560205503468E+01  4.10915475539048E+00
  8.20028171187006E+00  1.45405002296125E+01  4.02798983664020E-01
  3.61089636547694E+00  1.33341576943586E+01  2.27834632756011E-01
  2.70075073922964E+00  1.99515187467384E+01  1.53770865993084E+01
  2.84372291441266E+00  1.98623904303564E+01  9.32413948366020E+00
  4.81468080495961E+00  1.79423540087890E+01  8.52138179173549E+00
  2.78487751470410E+00  1.98543945821233E+01  1.21994697114230E+01
  3.60321962298577E+00  2.25028453331088E+01  8.49311393969656E+00
  2.63803668593596E-01  1.91314923030033E+01  8.31814958878856E+00
 -5.53953363284460E+00  1.50346025433399E+01  1.53770865993084E+01
 -5.53383233425274E+00  1.52029842372737E+01  9.32413948366020E+00
 -4.85651096225749E+00  1.78699020510605E+01  8.52138179173549E+00
 -5.49748502670382E+00  1.51560205503468E+01  1.21994697114230E+01
 -8.20028171187005E+00  1.45405002296125E+01  8.49311393969656E+00
 -3.61089636547693E+00  1.33341576943586E+01  8.31814958878856E+00
 -2.70075073922964E+00  1.99515187467384E+01  7.28677164327585E+00
 -2.84372291441265E+00  1.98623904303564E+01  1.23382452762765E+00
 -4.81468080495961E+00  1.79423540087890E+01  4.31066835702942E-01
 -2.78487751470409E+00  1.98543945821233E+01  4.10915475539048E+00
 -3.60321962298577E+00  2.25028453331088E+01  4.02798983664020E-01
 -2.63803668593591E-01  1.91314923030033E+01  2.27834632756011E-01
  1.59281467091421E+01  1.23146781228317E+01  7.28677164327585E+00
  1.57794732353673E+01  1.23939315003835E+01  1.23382452762765E+00
  1.31311939728250E+01  1.31408128926028E+01  4.31066835702942E-01
  1.58019713275269E+01  1.23389719652235E+01  4.10915475539048E+00
  1.76864259044115E+01  1.43719023954747E+01  4.02798983664020E-01
  1.64364565124105E+01  9.79420683011523E+00  2.27834632756011E-01
  1.02505809219122E+01  1.23146781228317E+01  1.53770865993084E+01
  1.03992543956871E+01  1.23939315003835E+01  9.32413948366020E+00
  1.30475336582293E+01  1.31408128926028E+01  8.52138179173549E+00
  1.03767563035274E+01  1.23389719652235E+01  1.21994697114230E+01
  8.49230172664288E+00  1.43719023954747E+01  8.49311393969656E+00
  9.74227111864382E+00  9.79420683011523E+00  8.31814958878856E+00
 Cartesian forces (hart/bohr); max,rms= 1.43435E-02 7.27690E-03 (free atoms)
 -3.38314628677229E-03 -6.89735455694581E-03  9.69874041658890E-03
 -4.37132755451953E-03 -1.09177777524328E-02  1.35975350904456E-02
 -8.22149810310651E-03  8.96438453803330E-03 -1.81706644063587E-03
  1.17008285904846E-03  4.32896967047999E-03 -1.43435146946550E-02
  5.25364047203543E-03 -3.68146149554381E-03 -5.16273781915211E-03
  1.48666604239341E-03 -5.08561622205288E-03 -1.97295655259145E-03
  4.28171112183729E-03 -6.37856790753671E-03  9.69874041658890E-03
  7.26940910921957E-03 -9.24456958669320E-03  1.35975350904455E-02
 -1.18741337907825E-02 -2.63783394543916E-03 -1.81706644063587E-03
 -3.16395627732379E-03  3.17780631570869E-03 -1.43435146946550E-02
  5.81505941421290E-03  2.70905536336085E-03 -5.16273781915211E-03
  5.14760586339274E-03 -1.25531755137008E-03 -1.97295655259145E-03
 -4.28171112183729E-03 -6.37856790753671E-03  9.69874041658890E-03
 -7.26940910921957E-03 -9.24456958669319E-03  1.35975350904456E-02
  1.18741337907825E-02 -2.63783394543917E-03 -1.81706644063587E-03
  3.16395627732379E-03  3.17780631570869E-03 -1.43435146946550E-02
 -5.81505941421290E-03  2.70905536336086E-03 -5.16273781915211E-03
 -5.14760586339274E-03 -1.25531755137007E-03 -1.97295655259145E-03
  7.66485740860958E-03  5.18786649409107E-04  9.69874041658890E-03
  1.16407366637391E-02  1.67320816573956E-03  1.35975350904455E-02
 -3.65263568767601E-03 -1.16022184834725E-02 -1.81706644063587E-03
 -4.33403913637225E-03 -1.15116335477130E-03 -1.43435146946550E-02
  5.61418942177469E-04  6.39051685890466E-03 -5.16273781915211E-03
  3.66093982099933E-03  3.83029867068280E-03 -1.97295655259145E-03
  3.38314628677229E-03 -6.89735455694581E-03  9.69874041658890E-03
  4.37132755451953E-03 -1.09177777524328E-02  1.35975350904456E-02
  8.22149810310651E-03  8.96438453803329E-03 -1.81706644063587E-03
 -1.17008285904846E-03  4.32896967047999E-03 -1.43435146946550E-02
 -5.25364047203544E-03 -3.68146149554380E-03 -5.16273781915211E-03
 -1.48666604239341E-03 -5.08561622205288E-03 -1.97295655259145E-03
 -7.66485740860958E-03  5.18786649409109E-04  9.69874041658890E-03
 -1.16407366637391E-02  1.67320816573956E-03  1.35975350904455E-02
  3.65263568767601E-03 -1.16022184834725E-02 -1.81706644063587E-03
  4.33403913637225E-03 -1.15116335477130E-03 -1.43435146946550E-02
 -5.61418942177469E-04  6.39051685890466E-03 -5.16273781915211E-03
 -3.66093982099933E-03  3.83029867068280E-03 -1.97295655259145E-03
  3.38314628677229E-03  6.89735455694581E-03  9.69874041658890E-03
  4.37132755451953E-03  1.09177777524328E-02  1.35975350904455E-02
  8.22149810310652E-03 -8.96438453803330E-03 -1.81706644063587E-03
 -1.17008285904846E-03 -4.32896967047999E-03 -1.43435146946550E-02
 -5.25364047203544E-03  3.68146149554381E-03 -5.16273781915211E-03
 -1.48666604239341E-03  5.08561622205288E-03 -1.97295655259145E-03
  7.66485740860958E-03 -5.18786649409109E-04  9.69874041658890E-03
  1.16407366637391E-02 -1.67320816573956E-03  1.35975350904455E-02
 -3.65263568767601E-03  1.16022184834725E-02 -1.81706644063587E-03
 -4.33403913637225E-03  1.15116335477130E-03 -1.43435146946550E-02
  5.61418942177469E-04 -6.39051685890466E-03 -5.16273781915211E-03
  3.66093982099933E-03 -3.83029867068280E-03 -1.97295655259145E-03
 -3.38314628677229E-03  6.89735455694581E-03  9.69874041658889E-03
 -4.37132755451953E-03  1.09177777524328E-02  1.35975350904455E-02
 -8.22149810310651E-03 -8.96438453803329E-03 -1.81706644063587E-03
  1.17008285904846E-03 -4.32896967047999E-03 -1.43435146946550E-02
  5.25364047203544E-03  3.68146149554380E-03 -5.16273781915211E-03
  1.48666604239341E-03  5.08561622205288E-03 -1.97295655259145E-03
 -7.66485740860958E-03 -5.18786649409104E-04  9.69874041658889E-03
 -1.16407366637391E-02 -1.67320816573956E-03  1.35975350904455E-02
  3.65263568767601E-03  1.16022184834725E-02 -1.81706644063587E-03
  4.33403913637225E-03  1.15116335477130E-03 -1.43435146946550E-02
 -5.61418942177469E-04 -6.39051685890466E-03 -5.16273781915211E-03
 -3.66093982099933E-03 -3.83029867068280E-03 -1.97295655259145E-03
 -4.28171112183729E-03  6.37856790753671E-03  9.69874041658890E-03
 -7.26940910921957E-03  9.24456958669320E-03  1.35975350904455E-02
  1.18741337907825E-02  2.63783394543916E-03 -1.81706644063587E-03
  3.16395627732379E-03 -3.17780631570869E-03 -1.43435146946550E-02
 -5.81505941421290E-03 -2.70905536336085E-03 -5.16273781915211E-03
 -5.14760586339274E-03  1.25531755137008E-03 -1.97295655259145E-03
  4.28171112183729E-03  6.37856790753670E-03  9.69874041658889E-03
  7.26940910921957E-03  9.24456958669319E-03  1.35975350904455E-02
 -1.18741337907825E-02  2.63783394543917E-03 -1.81706644063587E-03
 -3.16395627732379E-03 -3.17780631570869E-03 -1.43435146946550E-02
  5.81505941421290E-03 -2.70905536336085E-03 -5.16273781915211E-03
  5.14760586339274E-03  1.25531755137007E-03 -1.97295655259145E-03
 
 At the end of Broyden step  1, total energy= -9.16674834815521E+02 Ha.


 BROYDEN STEP NUMBER   2  ------------------------------------------------------

     iter   Etot(hartree)      deltaE(h)  residm     vres2    diffor    maxfor
 ETOT  1  -916.65579638604    -9.167E+02 5.855E-07 2.053E+02 8.860E-02 1.007E-01
 ETOT  2  -916.65616657180    -3.702E-04 3.695E-08 2.030E+02 6.677E-04 1.001E-01
 ETOT  3  -916.67986219411    -2.370E-02 1.168E-04 2.149E+01 9.295E-02 1.131E-02
 ETOT  4  -916.67986262454    -4.304E-07 4.873E-07 2.105E+01 6.397E-04 1.127E-02
 ETOT  5  -916.67988263487    -2.001E-05 5.690E-08 2.092E+01 9.657E-05 1.126E-02
 ETOT  6  -916.68098582876    -1.103E-03 3.160E-06 1.930E+01 4.082E-03 1.479E-02
 ETOT  7  -916.68118953420    -2.037E-04 2.158E-07 1.871E+01 1.142E-03 1.376E-02
 ETOT  8  -916.68121331528    -2.378E-05 6.290E-09 1.804E+01 2.063E-04 1.356E-02
 ETOT  9  -916.68161333290    -4.000E-04 1.498E-06 3.400E+00 6.996E-03 6.562E-03
 ETOT 10  -916.68162219493    -8.862E-06 9.003E-08 3.260E+00 1.900E-04 6.547E-03
 ETOT 11  -916.68164609291    -2.390E-05 1.410E-07 1.728E+00 1.276E-03 6.357E-03
 ETOT 12  -916.68165175971    -5.667E-06 1.333E-08 1.647E+00 2.212E-04 6.421E-03
 ETOT 13  -916.68166356048    -1.180E-05 1.251E-07 8.003E-01 5.324E-04 6.700E-03
 ETOT 14  -916.68166634432    -2.784E-06 6.884E-08 5.370E-01 7.739E-04 7.099E-03
 ETOT 15  -916.68166708423    -7.399E-07 4.516E-09 4.968E-01 1.542E-04 7.067E-03
 ETOT 16  -916.68166817076    -1.087E-06 1.767E-08 3.196E-01 1.876E-04 7.150E-03
 ETOT 17  -916.68166875347    -5.827E-07 3.711E-08 1.588E-01 4.532E-04 7.093E-03
 ETOT 18  -916.68166891770    -1.642E-07 2.207E-09 1.479E-01 1.490E-04 7.121E-03
 ETOT 19  -916.68166906437    -1.467E-07 3.522E-09 9.288E-02 1.002E-04 7.142E-03
 ETOT 20  -916.68166918795    -1.236E-07 1.632E-09 8.401E-02 5.900E-05 7.161E-03
 ETOT 21  -916.68166935419    -1.662E-07 2.762E-09 4.470E-02 1.170E-04 7.201E-03
 ETOT 22  -916.68166952179    -1.676E-07 9.864E-09 1.077E-02 1.478E-04 7.210E-03
 ETOT 23  -916.68166954479    -2.300E-08 1.037E-09 9.565E-03 1.883E-05 7.206E-03
 ETOT 24  -916.68166955992    -1.513E-08 9.004E-10 5.920E-03 1.599E-05 7.207E-03
 ETOT 25  -916.68166956845    -8.527E-09 7.277E-10 3.312E-03 3.003E-05 7.208E-03
 ETOT 26  -916.68166957334    -4.893E-09 3.480E-10 2.959E-03 1.351E-05 7.216E-03
 ETOT 27  -916.68166957849    -5.151E-09 3.682E-10 2.093E-03 8.387E-06 7.225E-03
 ETOT 28  -916.68166958208    -3.583E-09 3.617E-10 1.077E-03 1.432E-05 7.236E-03
 ETOT 29  -916.68166958491    -2.833E-09 1.448E-10 9.596E-04 6.552E-06 7.232E-03
 ETOT 30  -916.68166959010    -5.188E-09 3.537E-10 9.937E-05 2.869E-05 7.239E-03
 ETOT 31  -916.68166959058    -4.865E-10 1.459E-10 3.275E-05 5.954E-06 7.241E-03
 ETOT 32  -916.68166959097    -3.901E-10 8.934E-11 2.590E-05 2.613E-06 7.240E-03
 ETOT 33  -916.68166959116    -1.924E-10 7.889E-11 1.307E-05 2.375E-06 7.241E-03
 ETOT 34  -916.68166959099     1.777E-10 4.029E-11 9.861E-06 3.078E-06 7.240E-03
 ETOT 35  -916.68166959114    -1.485E-10 4.738E-11 4.474E-06 2.276E-06 7.240E-03
 ETOT 36  -916.68166959117    -3.138E-11 1.903E-11 3.433E-06 5.828E-07 7.240E-03
 ETOT 37  -916.68166959106     1.087E-10 2.259E-11 3.057E-06 4.736E-07 7.240E-03
 ETOT 38  -916.68166959123    -1.671E-10 8.928E-12 2.741E-06 1.959E-07 7.240E-03
 ETOT 39  -916.68166959132    -9.379E-11 9.297E-12 2.926E-06 1.311E-07 7.240E-03
 ETOT 40  -916.68166959132     3.183E-12 4.395E-12 2.619E-06 1.665E-07 7.240E-03
 ETOT 41  -916.68166959124     7.492E-11 4.572E-12 2.559E-06 2.339E-08 7.240E-03
 ETOT 42  -916.68166959123     1.035E-11 1.684E-12 2.827E-06 1.371E-07 7.240E-03
 ETOT 43  -916.68166959109     1.453E-10 1.875E-12 2.838E-06 5.114E-09 7.240E-03
 ETOT 44  -916.68166959113    -4.013E-11 7.400E-13 2.845E-06 3.267E-09 7.240E-03

 At SCF step   44, forces are converged :
  for the second time, max diff in force=  3.267E-09 < toldff=  1.000E-08

 Cartesian components of stress tensor (hartree/bohr^3)
  sigma(1 1)=  2.99616675E-05  sigma(3 2)=  0.00000000E+00
  sigma(2 2)=  2.99616675E-05  sigma(3 1)=  0.00000000E+00
  sigma(3 3)= -4.06735169E-05  sigma(2 1)=  0.00000000E+00
 
 Unit cell characteristics :
  acell=  2.6184074829E+01  2.6184074829E+01  1.6183934925E+01
  rprim=  1.0000000000E+00  0.0000000000E+00  0.0000000000E+00
         -5.0000000000E-01  8.6602540378E-01  0.0000000000E+00
          6.1232339957E-17  1.0605752387E-16  1.0000000000E+00
  ucvol=  9.6092440180E+03 Bohr^3
  lengths=  2.6184074829E+01  2.6184074829E+01  1.6183934925E+01 Bohr
  angles (23,13,12)=  90.00000000  90.00000000 120.00000000 degrees
 Cartesian coordinates (bohr)
  7.54783627158430E+00  7.63137440327430E+00  7.29782318408479E+00
  7.55342622940602E+00  7.46093344795526E+00  1.24595927094243E+00
  8.22733632406373E+00  4.80912233243700E+00  4.29163111656069E-01
  7.59459886961841E+00  7.52116492937686E+00  4.09971920716817E+00
  4.89387946679376E+00  8.12943802348849E+00  3.97979122414638E-01
  9.48173257486664E+00  9.33391163415517E+00  2.26608388888564E-01
 -2.83504596323373E+00  1.03523051564348E+01  7.29782318408479E+00
 -2.68464478717128E+00  1.02719257242549E+01  1.24595927094243E+00
 -5.11539477656075E-02  9.52964342833617E+00  4.29163111656069E-01
 -2.71622046008375E+00  1.03376980173306E+01  4.09971920716817E+00
 -4.59336011343528E+00  8.30294295304668E+00  3.97979122414638E-01
 -3.34253830442418E+00  1.28783770988025E+01  2.26608388888564E-01
  2.83504596323370E+00  1.03523051564348E+01  1.53897906465042E+01
  2.68464478717128E+00  1.02719257242549E+01  9.33792673336189E+00
  5.11539477656543E-02  9.52964342833617E+00  8.52113057407554E+00
  2.71622046008375E+00  1.03376980173306E+01  1.21916866695876E+01
  4.59336011343531E+00  8.30294295304668E+00  8.48994658483410E+00
  3.34253830442419E+00  1.28783770988025E+01  8.31857585130802E+00
  1.58011925940705E+01  2.72093075316046E+00  7.29782318408479E+00
  1.59460038123112E+01  2.81099227629967E+00  1.24595927094243E+00
  1.79055845570592E+01  4.72052109589920E+00  4.29163111656069E-01
  1.58732554991864E+01  2.81653308795369E+00  4.09971920716817E+00
  1.66968352486595E+01  1.73504929558210E-01  3.97979122414638E-01
  1.33598039495978E+01  3.54446546464736E+00  2.26608388888564E-01
  1.86362385573043E+01  7.63137440327430E+00  1.53897906465042E+01
  1.86306485994826E+01  7.46093344795526E+00  9.33792673336189E+00
  1.79567385048248E+01  4.80912233243700E+00  8.52113057407554E+00
  1.85894759592702E+01  7.52116492937686E+00  1.21916866695876E+01
  2.12901953620948E+01  8.12943802348849E+00  8.48994658483410E+00
  1.67023422540219E+01  9.33391163415517E+00  8.31857585130802E+00
  1.03828822348180E+01  2.72093075316046E+00  1.53897906465042E+01
  1.02380710165773E+01  2.81099227629968E+00  9.33792673336189E+00
  8.27849027182936E+00  4.72052109589921E+00  8.52113057407554E+00
  1.03108193297022E+01  2.81653308795369E+00  1.21916866695876E+01
  9.48723958022905E+00  1.73504929558210E-01  8.48994658483410E+00
  1.28242708792908E+01  3.54446546464736E+00  8.31857585130802E+00
  5.54420114286001E+00  1.50446995731358E+01  7.29782318408479E+00
  5.53861118503825E+00  1.52151405284549E+01  1.24595927094243E+00
  4.86470109038048E+00  1.78669516439732E+01  4.29163111656069E-01
  5.49743854482590E+00  1.51549090470333E+01  4.09971920716817E+00
  8.19815794765049E+00  1.45466359529217E+01  3.97979122414638E-01
  3.61030483957761E+00  1.33421623422550E+01  2.26608388888564E-01
  2.70915517962628E+00  1.99551432232497E+01  1.53897906465042E+01
  2.85396639786695E+00  1.98650817001105E+01  9.33792673336189E+00
  4.81354714261490E+00  1.79555528805110E+01  8.52113057407554E+00
  2.78121808474213E+00  1.98595408884565E+01  1.21916866695876E+01
  3.60479783421521E+00  2.25025690468519E+01  8.48994658483410E+00
  2.67766535153495E-01  1.91316085117627E+01  8.31857585130802E+00
 -5.54420114285998E+00  1.50446995731358E+01  1.53897906465042E+01
 -5.53861118503825E+00  1.52151405284549E+01  9.33792673336189E+00
 -4.86470109038055E+00  1.78669516439732E+01  8.52113057407554E+00
 -5.49743854482585E+00  1.51549090470333E+01  1.21916866695876E+01
 -8.19815794765050E+00  1.45466359529217E+01  8.48994658483410E+00
 -3.61030483957766E+00  1.33421623422550E+01  8.31857585130802E+00
 -2.70915517962628E+00  1.99551432232497E+01  7.29782318408479E+00
 -2.85396639786700E+00  1.98650817001105E+01  1.24595927094243E+00
 -4.81354714261487E+00  1.79555528805110E+01  4.29163111656069E-01
 -2.78121808474212E+00  1.98595408884565E+01  4.09971920716817E+00
 -3.60479783421520E+00  2.25025690468519E+01  3.97979122414638E-01
 -2.67766535153418E-01  1.91316085117628E+01  2.26608388888564E-01
  1.59270833776780E+01  1.23237688199754E+01  7.29782318408479E+00
  1.57766822016156E+01  1.24041482521552E+01  1.24595927094243E+00
  1.31431913622099E+01  1.31464305480740E+01  4.29163111656069E-01
  1.58082578745280E+01  1.23383759590796E+01  4.09971920716817E+00
  1.76853975278796E+01  1.43731310233635E+01  3.97979122414638E-01
  1.64345757188684E+01  9.79769687760764E+00  2.26608388888564E-01
  1.02569914512105E+01  1.23237688199754E+01  1.53897906465042E+01
  1.04073926272730E+01  1.24041482521552E+01  9.33792673336189E+00
  1.30408834666787E+01  1.31464305480740E+01  8.52113057407554E+00
  1.03758169543605E+01  1.23383759590796E+01  1.21916866695876E+01
  8.49867730100900E+00  1.43731310233635E+01  8.48994658483410E+00
  9.74949911002015E+00  9.79769687760764E+00  8.31857585130802E+00
 Cartesian forces (hart/bohr); max,rms= 7.23956E-03 3.64900E-03 (free atoms)
 -1.37157175106845E-03 -4.30877456220551E-03  6.45662243872451E-03
 -1.68186684113966E-03 -1.85798003723475E-03  3.68925417308972E-03
 -6.70994972487417E-03  2.85714643745559E-03 -3.21053660344582E-03
  7.80127193372418E-04  3.81630083758609E-03 -4.73324680573332E-04
  3.61369078188781E-03 -3.63838163351863E-03 -5.04514732746402E-03
 -1.67352988356347E-04 -4.99712587386004E-03 -1.41686800033106E-03
  3.04572235451592E-03 -3.34220326064114E-03  6.45662243872451E-03
  7.68124491399817E-04 -2.38552942882701E-03  3.68925417308972E-03
 -5.82933625960583E-03 -4.38241370112964E-03 -3.21053660344582E-03
 -2.91494987714718E-03  2.58376038643662E-03 -4.73324680573331E-04
  4.95777631423376E-03  1.31035720177718E-03 -5.04514732746402E-03
  4.24396145849313E-03 -2.64349487624586E-03 -1.41686800033106E-03
 -3.04572235451592E-03 -3.34220326064114E-03  6.45662243872451E-03
 -7.68124491399817E-04 -2.38552942882701E-03  3.68925417308972E-03
  5.82933625960583E-03 -4.38241370112964E-03 -3.21053660344582E-03
  2.91494987714718E-03  2.58376038643661E-03 -4.73324680573332E-04
 -4.95777631423376E-03  1.31035720177718E-03 -5.04514732746402E-03
 -4.24396145849313E-03 -2.64349487624586E-03 -1.41686800033106E-03
  4.41729410558437E-03  9.66571301564364E-04  6.45662243872451E-03
  2.44999133253948E-03 -5.27549391592262E-04  3.68925417308972E-03
  8.80613465268340E-04 -7.23956013858522E-03 -3.21053660344582E-03
 -3.69507707051960E-03 -1.23254045114948E-03 -4.73324680573331E-04
  1.34408553234595E-03  4.94873883529580E-03 -5.04514732746402E-03
  4.41131444684948E-03  2.35363099761418E-03 -1.41686800033106E-03
  1.37157175106845E-03 -4.30877456220551E-03  6.45662243872451E-03
  1.68186684113966E-03 -1.85798003723475E-03  3.68925417308972E-03
  6.70994972487416E-03  2.85714643745558E-03 -3.21053660344582E-03
 -7.80127193372418E-04  3.81630083758609E-03 -4.73324680573332E-04
 -3.61369078188781E-03 -3.63838163351863E-03 -5.04514732746402E-03
  1.67352988356348E-04 -4.99712587386004E-03 -1.41686800033106E-03
 -4.41729410558437E-03  9.66571301564367E-04  6.45662243872451E-03
 -2.44999133253948E-03 -5.27549391592261E-04  3.68925417308972E-03
 -8.80613465268340E-04 -7.23956013858522E-03 -3.21053660344582E-03
  3.69507707051960E-03 -1.23254045114948E-03 -4.73324680573332E-04
 -1.34408553234595E-03  4.94873883529580E-03 -5.04514732746402E-03
 -4.41131444684948E-03  2.35363099761418E-03 -1.41686800033106E-03
  1.37157175106845E-03  4.30877456220551E-03  6.45662243872451E-03
  1.68186684113966E-03  1.85798003723475E-03  3.68925417308972E-03
  6.70994972487417E-03 -2.85714643745559E-03 -3.21053660344582E-03
 -7.80127193372418E-04 -3.81630083758609E-03 -4.73324680573331E-04
 -3.61369078188781E-03  3.63838163351863E-03 -5.04514732746402E-03
  1.67352988356348E-04  4.99712587386004E-03 -1.41686800033106E-03
  4.41729410558437E-03 -9.66571301564368E-04  6.45662243872451E-03
  2.44999133253948E-03  5.27549391592260E-04  3.68925417308972E-03
  8.80613465268340E-04  7.23956013858522E-03 -3.21053660344582E-03
 -3.69507707051960E-03  1.23254045114948E-03 -4.73324680573331E-04
  1.34408553234595E-03 -4.94873883529581E-03 -5.04514732746402E-03
  4.41131444684948E-03 -2.35363099761418E-03 -1.41686800033106E-03
 -1.37157175106845E-03  4.30877456220551E-03  6.45662243872451E-03
 -1.68186684113966E-03  1.85798003723475E-03  3.68925417308972E-03
 -6.70994972487417E-03 -2.85714643745558E-03 -3.21053660344582E-03
  7.80127193372418E-04 -3.81630083758610E-03 -4.73324680573331E-04
  3.61369078188781E-03  3.63838163351862E-03 -5.04514732746402E-03
 -1.67352988356347E-04  4.99712587386004E-03 -1.41686800033106E-03
 -4.41729410558437E-03 -9.66571301564365E-04  6.45662243872451E-03
 -2.44999133253948E-03  5.27549391592261E-04  3.68925417308972E-03
 -8.80613465268340E-04  7.23956013858522E-03 -3.21053660344582E-03
  3.69507707051960E-03  1.23254045114948E-03 -4.73324680573332E-04
 -1.34408553234595E-03 -4.94873883529580E-03 -5.04514732746402E-03
 -4.41131444684948E-03 -2.35363099761418E-03 -1.41686800033106E-03
 -3.04572235451592E-03  3.34220326064114E-03  6.45662243872451E-03
 -7.68124491399817E-04  2.38552942882701E-03  3.68925417308972E-03
  5.82933625960583E-03  4.38241370112964E-03 -3.21053660344582E-03
  2.91494987714718E-03 -2.58376038643662E-03 -4.73324680573331E-04
 -4.95777631423376E-03 -1.31035720177718E-03 -5.04514732746402E-03
 -4.24396145849313E-03  2.64349487624586E-03 -1.41686800033106E-03
  3.04572235451592E-03  3.34220326064114E-03  6.45662243872451E-03
  7.68124491399817E-04  2.38552942882701E-03  3.68925417308972E-03
 -5.82933625960583E-03  4.38241370112964E-03 -3.21053660344582E-03
 -2.91494987714718E-03 -2.58376038643662E-03 -4.73324680573331E-04
  4.95777631423376E-03 -1.31035720177718E-03 -5.04514732746402E-03
  4.24396145849313E-03  2.64349487624586E-03 -1.41686800033106E-03
 
 At the end of Broyden step  2, total energy= -9.16681669591125E+02 Ha.


 BROYDEN STEP NUMBER   3  ------------------------------------------------------

     iter   Etot(hartree)      deltaE(h)  residm     vres2    diffor    maxfor
 ETOT  1  -916.64897488280    -9.166E+02 1.145E-06 2.691E+02 1.061E-01 1.125E-01
 ETOT  2  -916.68200117841    -3.303E-02 8.670E-07 6.144E+01 7.726E-02 3.572E-02
 ETOT  3  -916.68314378510    -1.143E-03 3.586E-06 4.039E+01 1.723E-02 1.859E-02
 ETOT  4  -916.68529870507    -2.155E-03 2.668E-06 2.959E+01 7.913E-03 1.200E-02
 ETOT  5  -916.68558071456    -2.820E-04 8.773E-07 2.364E+01 8.478E-03 1.221E-02
 ETOT  6  -916.68588870440    -3.080E-04 5.756E-07 1.612E+01 3.502E-03 8.711E-03
 ETOT  7  -916.68605229778    -1.636E-04 1.277E-06 8.586E+00 1.897E-03 7.363E-03
 ETOT  8  -916.68607368231    -2.138E-05 3.308E-07 6.121E+00 1.227E-03 6.136E-03
 ETOT  9  -916.68610240921    -2.873E-05 3.467E-08 5.045E+00 1.256E-03 7.389E-03
 ETOT 10  -916.68612731641    -2.491E-05 1.770E-07 2.573E+00 1.219E-03 7.592E-03
 ETOT 11  -916.68613185059    -4.534E-06 1.167E-07 1.630E+00 6.426E-04 7.695E-03
 ETOT 12  -916.68613466537    -2.815E-06 1.306E-08 1.475E+00 4.138E-04 7.461E-03
 ETOT 13  -916.68613940072    -4.735E-06 4.345E-08 8.160E-01 4.444E-04 7.464E-03
 ETOT 14  -916.68613968762    -2.869E-07 1.357E-08 6.781E-01 6.833E-05 7.500E-03
 ETOT 15  -916.68614024782    -5.602E-07 1.860E-09 5.719E-01 1.230E-04 7.520E-03
 ETOT 16  -916.68614052980    -2.820E-07 3.931E-09 4.541E-01 2.903E-04 7.707E-03
 ETOT 17  -916.68614074747    -2.177E-07 2.296E-09 3.981E-01 2.744E-04 7.525E-03
 ETOT 18  -916.68614179372    -1.046E-06 5.845E-08 5.853E-02 2.416E-04 7.521E-03
 ETOT 19  -916.68614193899    -1.453E-07 3.210E-08 1.435E-02 1.841E-04 7.402E-03
 ETOT 20  -916.68614219447    -2.555E-07 2.276E-09 7.066E-03 1.832E-04 7.524E-03
 ETOT 21  -916.68614231939    -1.249E-07 5.324E-09 8.083E-03 9.420E-05 7.516E-03
 ETOT 22  -916.68614232494    -5.551E-09 1.447E-09 9.658E-03 3.062E-05 7.530E-03
 ETOT 23  -916.68614233481    -9.868E-09 8.670E-10 8.314E-03 3.254E-05 7.513E-03
 ETOT 24  -916.68614233666    -1.848E-09 2.456E-10 7.377E-03 1.132E-05 7.513E-03
 ETOT 25  -916.68614233712    -4.571E-10 2.398E-10 7.812E-03 6.735E-06 7.514E-03
 ETOT 26  -916.68614233656     5.542E-10 9.459E-11 6.801E-03 1.323E-05 7.513E-03
 ETOT 27  -916.68614233698    -4.177E-10 7.858E-11 7.712E-03 1.191E-05 7.514E-03
 ETOT 28  -916.68614233728    -3.005E-10 7.659E-11 7.684E-03 3.988E-07 7.514E-03
 ETOT 29  -916.68614233697     3.157E-10 7.718E-11 6.965E-03 8.498E-06 7.513E-03
 ETOT 30  -916.68614233718    -2.170E-10 1.771E-11 6.965E-03 9.041E-08 7.513E-03
 ETOT 31  -916.68614233751    -3.262E-10 1.469E-11 7.788E-03 9.656E-06 7.514E-03
 ETOT 32  -916.68614233735     1.555E-10 1.916E-11 7.765E-03 2.684E-07 7.514E-03
 ETOT 33  -916.68614233723     1.276E-10 4.661E-12 8.028E-03 2.867E-06 7.514E-03
 ETOT 34  -916.68614233738    -1.554E-10 3.814E-12 7.684E-03 3.762E-06 7.514E-03
 ETOT 35  -916.68614233696     4.179E-10 6.102E-12 7.099E-03 7.172E-06 7.513E-03
 ETOT 36  -916.68614233669     2.697E-10 7.269E-12 6.657E-03 4.122E-06 7.513E-03
 ETOT 37  -916.68614233638     3.176E-10 4.384E-13 6.368E-03 2.407E-06 7.513E-03
 ETOT 38  -916.68614233609     2.806E-10 3.844E-13 6.175E-03 1.471E-06 7.513E-03
