20
 Energy =    -800.7259803711
 S   -2.4220000    0.2300000    0.2130000  0.00    0.0211865   -0.0014357   -0.0110124
 C   -2.1150000   -1.5780000    0.3110000  0.00   -0.0102211   -0.0899737    0.0288787
 C   -1.1420000    0.7640000   -1.0180000  0.00   -0.0083384    0.0168951   -0.0144599
 C    0.0810000    1.4640000   -0.4170000  0.00   -0.0568346    0.1168382   -0.0146980
 C    0.9340000    0.6050000    0.5170000  0.00   -2.2650213   -1.4031876   -1.2909892
 C    1.5650000   -0.5740000   -0.2300000  0.00    0.1193033   -2.2612531    1.8128037
 O    2.0270000   -0.5390000   -1.3560000  0.00    0.1703364    0.5192645   -0.9033679
 O    1.6350000   -1.6960000    0.5560000  0.00   -0.1853528    1.3216187   -0.7621638
 N    1.9170000    1.3570000    1.0780000  0.00   -1.5756554   -0.4246527   -0.1975668
 H   -1.1230000   -1.8100000    0.7190000  0.00   -0.0061733    0.0330059   -0.0279133
 H   -2.2380000   -2.0490000   -0.6730000  0.00    0.0054001    0.0311343    0.0230836
 H   -2.8780000   -1.9790000    0.9900000  0.00    0.0043502    0.0129870   -0.0104931
 H   -0.8590000   -0.1150000   -1.6140000  0.00   -0.0005961    0.0191596    0.0329895
 H   -1.6560000    1.4570000   -1.6980000  0.00    0.0383482   -0.0085515    0.0311681
 H    0.7140000    1.8210000   -1.2470000  0.00   -0.0104049    0.0005302    0.0074918
 H   -0.2360000    2.3450000    0.1600000  0.00   -0.0744422    0.0606049   -0.0554098
 H    0.3030000    0.2180000    1.3300000  0.00    0.0258192   -0.0531395   -0.1022281
 H    2.3900000    0.8470000    1.6420000  0.00    2.3224333   -2.1285426    2.5931728
 H    2.4370000    1.6970000    0.4390000  0.00    2.6787945    1.6632746   -2.9116290
 H    1.5440000    2.0520000    1.5380000  0.00   -1.1972564    2.5780949    1.7713065
20
 Energy =    -800.7808770846
 S   -2.3759590    0.2540042    0.2076230  0.00   -0.0251369    0.0132095   -0.0127424
 C   -2.0820687   -1.5556621    0.3225594  0.00   -0.0004785   -0.0535376    0.0177785
 C   -1.1041271    0.7690744   -1.0395656  0.00   -0.0174341    0.0120837   -0.0012898
 C    0.1237282    1.4585639   -0.4430897  0.00    0.1251247    0.0320289   -0.0109534
 C    0.9424629    0.5531569    0.4893245  0.00   -1.4272799   -0.6804627   -0.6638511
 C    1.5418058   -0.6808886   -0.2195721  0.00    0.1729537   -1.0261668    0.5777237
 O    2.0168076   -0.5411982   -1.3742051  0.00   -0.0388565   -0.0339559    0.0931212
 O    1.5242110   -1.7677778    0.5271324  0.00    0.0521278    0.8648924   -0.7324569
 N    1.9682486    1.2797187    1.1319769  0.00   -0.8386993   -0.0206483   -0.0193724
 H   -1.0846058   -1.7818415    0.7176933  0.00   -0.0077466    0.0084239   -0.0159683
 H   -2.2154691   -2.0298690   -0.6568837  0.00   -0.0013401    0.0099904    0.0077799
 H   -2.8403801   -1.9453953    1.0123200  0.00    0.0038039    0.0096519   -0.0058580
 H   -0.8296641   -0.1170886   -1.6263214  0.00   -0.0001765    0.0084255    0.0126364
 H   -1.6094216    1.4653246   -1.7198415  0.00    0.0033965   -0.0076650    0.0122616
 H    0.7682157    1.7911151   -1.2737863  0.00   -0.0112104    0.0001127    0.0097933
 H   -0.1908224    2.3563832    0.1121757  0.00   -0.0099325   -0.0051990   -0.0052173
 H    0.2692226    0.1686130    1.2646349  0.00    0.0327339    0.0456300    0.0462621
 H    2.4417607    0.7354891    1.7476891  0.00    1.0520827   -1.1616743    1.3362783
 H    2.5905411    1.6302545    0.5144630  0.00    1.4811337    0.8039075   -1.4429544
 H    1.6140300    2.0289328    1.6283639  0.00   -0.5461255    1.1830297    0.7959556
20
 Energy =    -800.8018467998
 S   -2.4132327    0.2596015    0.1975620  0.00   -0.0277856    0.0241663    0.0040823
 C   -2.1470381   -1.5501148    0.3766060  0.00    0.0044302   -0.0127234   -0.0210456
 C   -1.1237127    0.7228961   -1.0519648  0.00    0.0102063   -0.0245372    0.0163257
 C    0.1083515    1.4212477   -0.4725099  0.00    0.0853128    0.0105120    0.0277500
 C    0.9225555    0.5508351    0.4952204  0.00   -0.6131326   -0.3705733   -0.2805172
 C    1.5763270   -0.7104348   -0.1712166  0.00    0.0448912    0.3278268   -0.2715313
 O    2.0314485   -0.5437768   -1.3259743  0.00    0.1538715    0.2273920   -0.4538474
 O    1.6307879   -1.7610469    0.4840636  0.00   -0.1183545   -0.5270245    0.6096134
 N    1.9966652    1.3490826    1.0941835  0.00   -0.1410755    0.1016438    0.1590138
 H   -1.1559163   -1.7749396    0.7836302  0.00    0.0070113   -0.0047219    0.0051248
 H   -2.2798388   -2.0522818   -0.5880912  0.00   -0.0017507   -0.0008408    0.0028720
 H   -2.9159017   -1.9035112    1.0721819  0.00    0.0006437   -0.0000517    0.0085609
 H   -0.8503096   -0.1867507   -1.6002265  0.00    0.0011669   -0.0032045   -0.0056958
 H   -1.6171208    1.3965312   -1.7616571  0.00    0.0009773    0.0026000    0.0046686
 H    0.7555624    1.7239475   -1.3112292  0.00   -0.0009090   -0.0137861    0.0092590
 H   -0.2069681    2.3389285    0.0484689  0.00   -0.0071058   -0.0010716    0.0059290
 H    0.2667121    0.2028846    1.3018855  0.00    0.0607052    0.0632242    0.0771399
 H    2.5225487    0.8174834    1.7620050  0.00    0.2897939   -0.2885737    0.3627518
 H    2.6401126    1.6818571    0.4034119  0.00    0.3805842    0.1823521   -0.4389849
 H    1.6379296    2.1585046    1.5812436  0.00   -0.1317735    0.3075998    0.1786540
20
 Energy =    -800.8056658740
 S   -2.4243122    0.2555358    0.2041784  0.00   -0.0107682   -0.0066308    0.0035603
 C   -2.1516197   -1.5596883    0.3428502  0.00    0.0018317   -0.0015979   -0.0042336
 C   -1.1395901    0.7450846   -1.0404539  0.00   -0.0012491   -0.0178213    0.0051219
 C    0.0956898    1.4335315   -0.4553567  0.00    0.0725654   -0.0183070    0.0521318
 C    0.9103607    0.5433543    0.4886851  0.00   -0.2195289   -0.1691101   -0.1242058
 C    1.5886173   -0.7077602   -0.1903071  0.00   -0.0351692   -0.2500414    0.2135279
 O    2.0669682   -0.5542079   -1.3410527  0.00    0.0313593    0.1238145   -0.1066025
 O    1.6165124   -1.7608512    0.5216072  0.00   -0.0431275    0.1650854   -0.0690116
 N    2.0218413    1.3483443    1.0869906  0.00    0.0614506    0.1192311    0.0117844
 H   -1.1560546   -1.7914994    0.7366844  0.00    0.0011926    0.0048818   -0.0000035
 H   -2.2928248   -2.0426981   -0.6302614  0.00   -0.0023611    0.0029812   -0.0007831
 H   -2.9131388   -1.9291811    1.0388116  0.00    0.0030511    0.0031057    0.0035546
 H   -0.8696687   -0.1520186   -1.6112190  0.00   -0.0016901    0.0004020   -0.0019267
 H   -1.6376927    1.4353363   -1.7304076  0.00    0.0020105    0.0003827   -0.0032654
 H    0.7394120    1.7489267   -1.2897156  0.00    0.0088863    0.0032449   -0.0199344
 H   -0.2171320    2.3406872    0.0853566  0.00   -0.0011788   -0.0010304   -0.0033127
 H    0.2780628    0.1989152    1.3154249  0.00    0.0570045    0.0229945    0.0243835
 H    2.5850763    0.8120574    1.7502549  0.00    0.0153236   -0.0915766    0.0775413
 H    2.6531461    1.6619551    0.3464227  0.00    0.0954169    0.0687438   -0.0783917
 H    1.6865476    2.1828028    1.5791977  0.00   -0.0375551    0.0415901    0.0204693
20
 Energy =    -800.8062426803
 S   -2.4187208    0.2665303    0.2028388  0.00   -0.0026994   -0.0069479   -0.0054489
 C   -2.1468330   -1.5471281    0.3523207  0.00   -0.0052624   -0.0066845    0.0048419
 C   -1.1288594    0.7378546   -1.0436918  0.00   -0.0133465    0.0069845   -0.0036884
 C    0.1084985    1.4261371   -0.4619677  0.00    0.0335094   -0.0164486    0.0503767
 C    0.9088878    0.5358891    0.4896028  0.00   -0.0591601   -0.0179914   -0.0636784
 C    1.5738318   -0.7180139   -0.1880722  0.00   -0.0129328   -0.1096704    0.1439758
 O    2.0546713   -0.5535050   -1.3374448  0.00    0.0448336    0.0806069   -0.1093282
 O    1.5901772   -1.7703203    0.5145840  0.00   -0.0332993    0.0348511   -0.0039958
 N    2.0344644    1.3500282    1.0878579  0.00    0.0555938    0.0402017    0.0132781
 H   -1.1492759   -1.7764185    0.7426214  0.00    0.0003571    0.0042545   -0.0006906
 H   -2.2934545   -2.0364519   -0.6168161  0.00   -0.0020552    0.0024197   -0.0006218
 H   -2.9047254   -1.9111644    1.0549570  0.00    0.0022580   -0.0010109    0.0035890
 H   -0.8621606   -0.1656960   -1.6057619  0.00   -0.0005664    0.0004042    0.0008668
 H   -1.6215617    1.4237034   -1.7419549  0.00    0.0004100    0.0005614   -0.0032558
 H    0.7578775    1.7283607   -1.2983506  0.00   -0.0000045   -0.0068674    0.0018860
 H   -0.1993981    2.3401478    0.0699010  0.00   -0.0066523   -0.0017107   -0.0067512
 H    0.2922389    0.2095326    1.3352651  0.00    0.0201768    0.0164127   -0.0093541
 H    2.5704966    0.8056955    1.7740589  0.00   -0.0047256   -0.0123723    0.0001654
 H    2.6909190    1.6590134    0.3586793  0.00   -0.0064025   -0.0048689   -0.0046391
 H    1.6909031    2.1903036    1.5696656  0.00   -0.0120115   -0.0017178   -0.0075067
20
 Energy =    -800.8064271375
 S   -2.4195366    0.2716333    0.2016321  0.00   -0.0066958   -0.0015496   -0.0028662
 C   -2.1593702   -1.5442532    0.3462052  0.00   -0.0007209   -0.0037822    0.0004224
 C   -1.1256999    0.7428452   -1.0409983  0.00   -0.0113154    0.0030729   -0.0024615
 C    0.1146480    1.4230035   -0.4544494  0.00    0.0044789   -0.0010880    0.0232074
 C    0.9089133    0.5281102    0.4917800  0.00   -0.0070416   -0.0163278    0.0049499
 C    1.5740669   -0.7225074   -0.1882531  0.00   -0.0270469   -0.0390816    0.0909629
 O    2.0632220   -0.5334060   -1.3324268  0.00    0.0545457    0.0133861   -0.0717750
 O    1.5797976   -1.7822150    0.5009512  0.00   -0.0184478    0.0200782   -0.0253692
 N    2.0407422    1.3378064    1.0936477  0.00    0.0314481    0.0262898    0.0005358
 H   -1.1610267   -1.7801539    0.7304730  0.00    0.0002395    0.0029930   -0.0007057
 H   -2.3146684   -2.0301680   -0.6232912  0.00   -0.0009509    0.0003666    0.0000107
 H   -2.9154922   -1.9050100    1.0524864  0.00    0.0020282    0.0011606    0.0029559
 H   -0.8624529   -0.1592869   -1.6069401  0.00    0.0008863   -0.0012177    0.0020489
 H   -1.6138139    1.4335738   -1.7378896  0.00   -0.0000870    0.0006006    0.0005187
 H    0.7656300    1.7239691   -1.2898320  0.00    0.0011316   -0.0041604    0.0017904
 H   -0.1898491    2.3369660    0.0793153  0.00   -0.0076676   -0.0005338   -0.0059007
 H    0.2971998    0.2033326    1.3407031  0.00    0.0005346    0.0111743   -0.0068538
 H    2.5683612    0.7900131    1.7839052  0.00   -0.0061316   -0.0024838   -0.0024529
 H    2.7020140    1.6388778    0.3656624  0.00   -0.0046882   -0.0057103   -0.0054923
 H    1.6990625    2.1820473    1.5697442  0.00   -0.0060752   -0.0032273   -0.0035125
20
 Energy =    -800.8065072882
 S   -2.4236810    0.2736215    0.1991079  0.00   -0.0064863    0.0020887   -0.0003241
 C   -2.1686440   -1.5436574    0.3366542  0.00    0.0017147   -0.0006229   -0.0025794
 C   -1.1268164    0.7481020   -1.0392774  0.00   -0.0047100   -0.0013017   -0.0007850
 C    0.1157025    1.4223373   -0.4481881  0.00   -0.0195157   -0.0041661   -0.0063961
 C    0.9069191    0.5232555    0.4928550  0.00    0.0392470   -0.0141263    0.0457295
 C    1.5786994   -0.7264020   -0.1855701  0.00   -0.0375309    0.0366185    0.0179027
 O    2.0917482   -0.5198188   -1.3192017  0.00    0.0389911   -0.0193185   -0.0126354
 O    1.5643015   -1.7917904    0.4904731  0.00   -0.0094658   -0.0135428   -0.0224715
 N    2.0428156    1.3322021    1.0952340  0.00    0.0026470    0.0122386   -0.0110848
 H   -1.1669451   -1.7826135    0.7100201  0.00    0.0004769    0.0012609   -0.0002086
 H   -2.3355577   -2.0264221   -0.6325280  0.00    0.0000004   -0.0006235    0.0008398
 H   -2.9182931   -1.9036211    1.0501534  0.00    0.0012650    0.0015702    0.0025268
 H   -0.8650473   -0.1522561   -1.6087507  0.00   -0.0001203   -0.0012568    0.0002714
 H   -1.6121856    1.4434997   -1.7335242  0.00    0.0008385   -0.0005733    0.0011527
 H    0.7678475    1.7235247   -1.2822546  0.00    0.0017350    0.0009693   -0.0023956
 H   -0.1889370    2.3354845    0.0867660  0.00   -0.0012228   -0.0009278   -0.0007573
 H    0.2978566    0.2012611    1.3438529  0.00   -0.0096584    0.0001751   -0.0020888
 H    2.5623207    0.7859093    1.7924539  0.00   -0.0021045    0.0020268   -0.0003474
 H    2.7077738    1.6203886    0.3658850  0.00    0.0026123   -0.0007691   -0.0071096
 H    1.7021414    2.1824131    1.5608260  0.00    0.0002044   -0.0002617    0.0006539
20
 Energy =    -800.8067745709
 S   -2.4327854    0.2842106    0.1864188  0.00    0.0031634    0.0044457    0.0004043
 C   -2.1813311   -1.5332245    0.3307191  0.00   -0.0011891    0.0034977    0.0003824
 C   -1.1248413    0.7487286   -1.0443109  0.00    0.0165965   -0.0080542    0.0077300
 C    0.1210488    1.4174136   -0.4482189  0.00   -0.0472796   -0.0161674   -0.0393240
 C    0.9046352    0.5184084    0.4988186  0.00    0.0871171   -0.0071552    0.0375202
 C    1.5826025   -0.7356800   -0.1742880  0.00    0.0116168    0.1296902   -0.0989793
 O    2.1821906   -0.5070068   -1.2675288  0.00   -0.0373917   -0.0216913    0.1164710
 O    1.4920939   -1.8180300    0.4600073  0.00   -0.0215022   -0.0735451    0.0019078
 N    2.0471067    1.3294369    1.0971485  0.00   -0.0635471   -0.0204080   -0.0470466
 H   -1.1696491   -1.7697181    0.6775880  0.00    0.0015396   -0.0023583   -0.0003760
 H   -2.3770133   -2.0230329   -0.6296064  0.00    0.0013964   -0.0010159    0.0021618
 H   -2.9108017   -1.8841640    1.0690443  0.00   -0.0013445   -0.0014215    0.0012001
 H   -0.8650221   -0.1557374   -1.6084300  0.00   -0.0050688    0.0012858   -0.0050859
 H   -1.6015267    1.4459202   -1.7424481  0.00    0.0034524   -0.0010180   -0.0032208
 H    0.7788221    1.7102562   -1.2807839  0.00   -0.0000515    0.0083286   -0.0049432
 H   -0.1868080    2.3346347    0.0775412  0.00    0.0155943   -0.0010176    0.0108967
 H    0.2889214    0.2074096    1.3479497  0.00   -0.0018027   -0.0164004    0.0121677
 H    2.5469503    0.7964364    1.8171566  0.00    0.0098922    0.0003688    0.0088920
 H    2.7211016    1.5770437    0.3618668  0.00    0.0200030    0.0114873   -0.0073521
 H    1.7111893    2.1984373    1.5290114  0.00    0.0082705    0.0093363    0.0052736
20
 Energy =    -800.8074126964
 S   -2.4430369    0.3025028    0.1694627  0.00    0.0173432    0.0029685   -0.0015864
 C   -2.1959017   -1.5144350    0.3332403  0.00   -0.0069178    0.0074564    0.0088088
 C   -1.1209768    0.7453380   -1.0544048  0.00    0.0384445   -0.0081957    0.0129478
 C    0.1297590    1.4087123   -0.4558078  0.00   -0.0823545   -0.0538651   -0.0661986
 C    0.9028860    0.5123170    0.5050784  0.00    0.1389247    0.0228002    0.0176209
 C    1.5845731   -0.7488066   -0.1545717  0.00    0.1054188    0.1807633   -0.2083906
 O    2.3145917   -0.5015246   -1.1698972  0.00   -0.1407549   -0.0047406    0.2299778
 O    1.3758493   -1.8533020    0.4017740  0.00   -0.0561922   -0.1087410    0.0257697
 N    2.0534216    1.3300292    1.0870291  0.00   -0.1267234   -0.0425169   -0.0611144
 H   -1.1723708   -1.7462361    0.6469731  0.00    0.0025171   -0.0056682   -0.0015717
 H   -2.4271743   -2.0188597   -0.6115651  0.00    0.0010709   -0.0000069    0.0025023
 H   -2.8985809   -1.8496370    1.1041118  0.00   -0.0045549   -0.0043146   -0.0014491
 H   -0.8662768   -0.1670898   -1.6083572  0.00   -0.0092253    0.0054529   -0.0078359
 H   -1.5851324    1.4423228   -1.7607307  0.00    0.0033852   -0.0013105   -0.0087170
 H    0.7949217    1.6878662   -1.2872882  0.00   -0.0019481    0.0143210   -0.0055363
 H   -0.1795613    2.3330678    0.0560663  0.00    0.0329045   -0.0017920    0.0226512
 H    0.2793080    0.2209096    1.3544597  0.00    0.0095820   -0.0319956    0.0246126
 H    2.5417978    0.8155633    1.8264097  0.00    0.0248042   -0.0033153    0.0194870
 H    2.7279847    1.5347302    0.3391951  0.00    0.0375582    0.0135443   -0.0092382
 H    1.7242966    2.2167803    1.4853831  0.00    0.0164344    0.0194621    0.0055276
20
 Energy =    -800.8079602033
 S   -2.4478813    0.3247853    0.1571018  0.00    0.0255021   -0.0090298   -0.0064051
 C   -2.2087514   -1.4918008    0.3496221  0.00   -0.0092316    0.0100815    0.0214604
 C   -1.1149391    0.7379530   -1.0653197  0.00    0.0426908    0.0112296    0.0079877
 C    0.1404058    1.3957201   -0.4682318  0.00   -0.1125923   -0.1229108   -0.0376467
 C    0.9064206    0.5016802    0.5113896  0.00    0.1112130    0.1001038   -0.0055467
 C    1.5822265   -0.7583351   -0.1297551  0.00    0.1260919   -0.0157719   -0.2240636
 O    2.4310328   -0.5046877   -1.0449699  0.00   -0.1116850    0.0503413    0.1618460
 O    1.2567709   -1.8872653    0.3178250  0.00   -0.0872528    0.0030097    0.0449955
 N    2.0605124    1.3333516    1.0549908  0.00   -0.0968080   -0.0078699   -0.0035770
 H   -1.1775486   -1.7209208    0.6405497  0.00    0.0004764   -0.0053299   -0.0044044
 H   -2.4644007   -2.0136266   -0.5792331  0.00   -0.0036620    0.0030423   -0.0006789
 H   -2.8930089   -1.8088747    1.1448278  0.00   -0.0049850   -0.0012426   -0.0069764
 H   -0.8716496   -0.1824453   -1.6111834  0.00   -0.0034942    0.0057154   -0.0017753
 H   -1.5651085    1.4350438   -1.7804525  0.00   -0.0058648   -0.0021528   -0.0102722
 H    0.8114993    1.6664824   -1.2983122  0.00   -0.0019569    0.0033912    0.0021558
 H   -0.1635694    2.3251091    0.0373803  0.00    0.0327568   -0.0032797    0.0211300
 H    0.2814335    0.2310998    1.3675969  0.00    0.0227480   -0.0214778    0.0163572
 H    2.5914167    0.8203005    1.7658910  0.00    0.0304787    0.0017574    0.0105919
 H    2.6955865    1.5576971    0.2754327  0.00    0.0277562   -0.0209138    0.0212186
 H    1.7321413    2.2072698    1.4821038  0.00    0.0165398    0.0184643   -0.0080744
20
 Energy =    -800.8085307858
 S   -2.4510060    0.3491550    0.1481238  0.00    0.0401536   -0.0030715   -0.0075963
 C   -2.2200073   -1.4634469    0.3834399  0.00   -0.0211732    0.0123505    0.0224293
 C   -1.1078903    0.7190490   -1.0769376  0.00    0.0563933    0.0004076    0.0050187
 C    0.1553631    1.3747883   -0.4915696  0.00   -0.1211991   -0.1230352   -0.0478604
 C    0.9221925    0.5030076    0.5106787  0.00    0.0777661    0.1269217   -0.0154718
 C    1.5730889   -0.7789202   -0.1125905  0.00    0.1727784    0.0445968   -0.1526217
 O    2.5042403   -0.5418119   -0.9476682  0.00   -0.0976942    0.0392334    0.1062615
 O    1.1508416   -1.8998049    0.2647834  0.00   -0.0958214   -0.0016987    0.0446824
 N    2.0830682    1.3545989    1.0187449  0.00   -0.1512716   -0.0706382   -0.0070832
 H   -1.1735742   -1.6895032    0.6166427  0.00   -0.0008208   -0.0100995   -0.0000020
 H   -2.5352419   -2.0107182   -0.5120150  0.00   -0.0035134    0.0028576    0.0009623
 H   -2.8566797   -1.7475854    1.2287311  0.00   -0.0080515   -0.0079796   -0.0059016
 H   -0.8764267   -0.2167095   -1.6020599  0.00   -0.0031242    0.0111977    0.0011480
 H   -1.5444424    1.4069684   -1.8091717  0.00   -0.0074586   -0.0010954   -0.0093269
 H    0.8300578    1.6198716   -1.3270164  0.00   -0.0096693    0.0121069   -0.0018910
 H   -0.1439625    2.3179069   -0.0100782  0.00    0.0416977    0.0041180    0.0257526
 H    0.2966433    0.2694662    1.3769157  0.00    0.0292896   -0.0383969    0.0273006
 H    2.6166442    0.8654586    1.7440241  0.00    0.0409286   -0.0012677    0.0021207
 H    2.7093897    1.5463710    0.2232602  0.00    0.0378245   -0.0243434    0.0299396
 H    1.7525819    2.2397519    1.4195921  0.00    0.0231012    0.0263645   -0.0187578
20
 Energy =    -800.8091933078
 S   -2.4565985    0.3633489    0.1429573  0.00    0.0371012    0.0103849    0.0027749
 C   -2.2493277   -1.4493361    0.3996503  0.00   -0.0212699    0.0110220    0.0057194
 C   -1.1050894    0.7101323   -1.0794775  0.00    0.0605403   -0.0320533    0.0156747
 C    0.1623129    1.3579847   -0.4967127  0.00   -0.0764912   -0.0724959   -0.0490605
 C    0.9388855    0.5013012    0.5127472  0.00    0.0489855    0.1064701   -0.0359801
 C    1.5800924   -0.7865008   -0.1094610  0.00    0.0324610    0.0799775   -0.0246224
 O    2.5271220   -0.5569687   -0.9196469  0.00    0.0137046    0.0194988    0.0140459
 O    1.1159381   -1.8971876    0.2488702  0.00   -0.0643227   -0.0412744    0.0159277
 N    2.1048441    1.3551194    1.0053262  0.00   -0.1775684   -0.0786430    0.0115124
 H   -1.1955553   -1.6887212    0.5803203  0.00    0.0003766   -0.0102457    0.0087552
 H   -2.6216063   -2.0051349   -0.4683137  0.00    0.0003771    0.0012886    0.0029425
 H   -2.8455096   -1.7065851    1.2822026  0.00   -0.0057213   -0.0087887   -0.0048542
 H   -0.8822457   -0.2323365   -1.5961798  0.00   -0.0019559    0.0108873   -0.0006430
 H   -1.5307338    1.3969652   -1.8193121  0.00   -0.0079607   -0.0018409   -0.0055729
 H    0.8355290    1.5940893   -1.3365582  0.00   -0.0128081    0.0177658    0.0002433
 H   -0.1313414    2.3067223   -0.0235420  0.00    0.0393339    0.0124633    0.0248581
 H    0.3170050    0.2787597    1.3847686  0.00    0.0383732   -0.0435304    0.0262827
 H    2.6232897    0.8800028    1.7512225  0.00    0.0285504    0.0062649    0.0024814
 H    2.7459041    1.5119090    0.2146768  0.00    0.0310116   -0.0169507    0.0054106
 H    1.7772011    2.2549064    1.3746086  0.00    0.0382190    0.0278907   -0.0161148
20
 Energy =    -800.8099841580
 S   -2.4654616    0.3797718    0.1312604  0.00    0.0246052    0.0070666    0.0144467
 C   -2.2848161   -1.4274679    0.4540923  0.00   -0.0111815    0.0150911    0.0070888
 C   -1.1048603    0.6824069   -1.0926179  0.00    0.0440643   -0.0423486    0.0186606
 C    0.1616512    1.3352360   -0.5196434  0.00   -0.0366862   -0.0794223   -0.0140211
 C    0.9449998    0.5005906    0.5110497  0.00    0.0607594    0.0889519   -0.1029911
 C    1.5984935   -0.7833082   -0.0923935  0.00   -0.1766205   -0.1193594   -0.0029022
 O    2.6351519   -0.5792900   -0.7835464  0.00    0.1265713    0.0680309   -0.0466742
 O    1.0310523   -1.8826995    0.1449561  0.00   -0.0223319    0.0181838    0.0164669
 N    2.1121781    1.3532195    0.9676911  0.00   -0.1333138    0.0451332    0.0989880
 H   -1.2264927   -1.6797690    0.5868945  0.00   -0.0009457   -0.0062778    0.0015530
 H   -2.7151228   -2.0114152   -0.3669696  0.00    0.0023734    0.0038225   -0.0029294
 H   -2.8353587   -1.6363225    1.3785120  0.00   -0.0062486    0.0013974   -0.0081181
 H   -0.8901460   -0.2733239   -1.5872949  0.00    0.0070865    0.0104035    0.0050302
 H   -1.5183308    1.3576020   -1.8497623  0.00   -0.0205161   -0.0038263   -0.0060771
 H    0.8317031    1.5623177   -1.3657060  0.00   -0.0067655    0.0088472    0.0168660
 H   -0.1253806    2.2916569   -0.0579812  0.00    0.0227428    0.0137113    0.0149161
 H    0.3270500    0.2875058    1.3894930  0.00    0.0416386   -0.0347683    0.0019955
 H    2.6116110    0.9134723    1.7472804  0.00    0.0127829    0.0118640    0.0202854
 H    2.7737271    1.4328402    0.1819662  0.00    0.0321779   -0.0294070   -0.0317912
 H    1.8072515    2.2856266    1.2695685  0.00    0.0416733    0.0211535   -0.0014474
20
 Energy =    -800.8106254098
 S   -2.4615682    0.3880818    0.1191164  0.00    0.0113685    0.0148220    0.0198425
 C   -2.2953508   -1.4074206    0.5090267  0.00   -0.0044795    0.0136622    0.0084770
 C   -1.0959982    0.6489818   -1.1087092  0.00    0.0245146   -0.0432038    0.0156194
 C    0.1650785    1.3185899   -0.5489277  0.00   -0.0157374   -0.0581956   -0.0071956
 C    0.9477065    0.5095487    0.5022518  0.00    0.0250885    0.0291054   -0.0989875
 C    1.6019965   -0.7855346   -0.0838605  0.00   -0.1980650   -0.1419151    0.0021554
 O    2.6812254   -0.6085806   -0.7138389  0.00    0.1418151    0.0977407   -0.0296398
 O    0.9842770   -1.8699934    0.0962670  0.00   -0.0066816    0.0593457    0.0244076
 N    2.0998540    1.3733059    0.9590323  0.00   -0.0628984    0.0318326    0.0894655
 H   -1.2359908   -1.6662942    0.6204783  0.00   -0.0034159   -0.0066901   -0.0033115
 H   -2.7567568   -2.0181450   -0.2745393  0.00    0.0037293    0.0025747   -0.0061681
 H   -2.8200335   -1.5726695    1.4570600  0.00   -0.0073592    0.0046656   -0.0085713
 H   -0.8785410   -0.3219330   -1.5706730  0.00    0.0080953    0.0084490    0.0039958
 H   -1.5059596    1.3003865   -1.8884991  0.00   -0.0218550   -0.0067332   -0.0043388
 H    0.8348662    1.5317968   -1.3988248  0.00   -0.0011637    0.0053574    0.0195679
 H   -0.1217753    2.2845001   -0.1066309  0.00    0.0104464    0.0096553    0.0077906
 H    0.3236699    0.3000562    1.3774145  0.00    0.0292414   -0.0275050   -0.0070051
 H    2.5518580    0.9836986    1.7920466  0.00    0.0021106    0.0103785    0.0326420
 H    2.8045748    1.3724775    0.2066806  0.00    0.0400275   -0.0195974   -0.0572684
 H    1.8082388    2.3336486    1.1737453  0.00    0.0274696    0.0128940   -0.0006722
20
 Energy =    -800.8115034401
 S   -2.4625802    0.3917743    0.1060358  0.00   -0.0050535    0.0350763    0.0207592
 C   -2.3142279   -1.3816894    0.5860924  0.00    0.0093284    0.0079772   -0.0007755
 C   -1.0945703    0.5920183   -1.1305666  0.00    0.0023766   -0.0417678    0.0100873
 C    0.1587709    1.2900278   -0.5935286  0.00   -0.0187527   -0.0057381   -0.0073013
 C    0.9375500    0.5158420    0.4801334  0.00    0.0351902   -0.0286023   -0.0356278
 C    1.6144040   -0.7815058   -0.0810841  0.00   -0.0247847   -0.0496616   -0.0222171
 O    2.7540179   -0.6079462   -0.6095036  0.00    0.0295658    0.0644322    0.0153834
 O    0.9681440   -1.8557431    0.0197786  0.00   -0.0330829    0.0366520    0.0171523
 N    2.0688066    1.3963367    0.9567308  0.00   -0.0131130    0.0263073    0.0499753
 H   -1.2557441   -1.6484044    0.6852549  0.00   -0.0058012   -0.0132566   -0.0034497
 H   -2.8014176   -2.0254214   -0.1541276  0.00    0.0058905   -0.0016964   -0.0046724
 H   -2.8185311   -1.4886325    1.5529791  0.00   -0.0068925    0.0014008   -0.0052613
 H   -0.8677606   -0.4000645   -1.5383226  0.00    0.0013319    0.0033098   -0.0012660
 H   -1.5071264    1.2003739   -1.9435336  0.00   -0.0097436   -0.0074561    0.0006480
 H    0.8287129    1.4848569   -1.4465567  0.00    0.0068080    0.0049249    0.0065215
 H   -0.1325647    2.2679653   -0.1798131  0.00    0.0014158   -0.0015667    0.0009256
 H    0.3054052    0.2959346    1.3458939  0.00   -0.0032292   -0.0106344   -0.0061017
 H    2.4402684    1.0813023    1.8586054  0.00   -0.0083759   -0.0000754    0.0184432
 H    2.8303742    1.2924223    0.2639692  0.00    0.0364787   -0.0253575   -0.0455790
 H    1.8030752    2.3829541    1.0540613  0.00   -0.0007509    0.0019979   -0.0072770
20
 Energy =    -800.8120883182
 S   -2.4648379    0.3943139    0.1015560  0.00   -0.0032181    0.0203160    0.0197876
 C   -2.3238987   -1.3614774    0.6452692  0.00    0.0083917    0.0036697   -0.0082054
 C   -1.0993900    0.5402858   -1.1455343  0.00   -0.0114967   -0.0296957   -0.0000226
 C    0.1492319    1.2627098   -0.6326004  0.00   -0.0175478    0.0259131   -0.0086330
 C    0.9266632    0.5161467    0.4583538  0.00    0.0509421   -0.0187921    0.0156667
 C    1.6284502   -0.7729800   -0.0794592  0.00    0.0416011    0.0020801   -0.0299662
 O    2.8101622   -0.5948566   -0.5159636  0.00   -0.0263707   -0.0007386    0.0155347
 O    0.9636141   -1.8373358   -0.0497865  0.00   -0.0129924   -0.0040638   -0.0052269
 N    2.0445694    1.4073837    0.9489514  0.00   -0.0054150    0.0463933    0.0425209
 H   -1.2669754   -1.6338833    0.7423046  0.00   -0.0043431   -0.0076628    0.0002892
 H   -2.8202448   -2.0289582   -0.0673655  0.00    0.0016504   -0.0007616   -0.0032795
 H   -2.8202380   -1.4300070    1.6193621  0.00   -0.0062886   -0.0018685   -0.0016566
 H   -0.8667673   -0.4675476   -1.5076788  0.00   -0.0032428   -0.0001417    0.0010163
 H   -1.5171570    1.1094074   -1.9835929  0.00    0.0013369    0.0003902   -0.0010777
 H    0.8193560    1.4442307   -1.4882653  0.00    0.0028364   -0.0004556   -0.0011163
 H   -0.1480267    2.2487136   -0.2418681  0.00    0.0003058   -0.0084485   -0.0006659
 H    0.2855693    0.2849446    1.3140891  0.00   -0.0137574    0.0069542   -0.0019363
 H    2.3465447    1.1531697    1.8956713  0.00   -0.0122956    0.0010248   -0.0036035
 H    2.8433700    1.2186314    0.3097632  0.00    0.0150785   -0.0241222   -0.0186189
 H    1.8072979    2.4062490    0.9549946  0.00   -0.0057448   -0.0103463   -0.0130241
20
 Energy =    -800.8123556837
 S   -2.4698248    0.3974507    0.1000700  0.00    0.0077808   -0.0054105    0.0236662
 C   -2.3379704   -1.3471811    0.6846222  0.00   -0.0007896   -0.0002315   -0.0136250
 C   -1.1063848    0.4972053   -1.1540024  0.00   -0.0102118   -0.0146709   -0.0031814
 C    0.1416195    1.2370746   -0.6640126  0.00   -0.0018299    0.0211005   -0.0056493
 C    0.9255772    0.5183446    0.4442032  0.00    0.0071928   -0.0063975    0.0050705
 C    1.6460717   -0.7669816   -0.0720962  0.00   -0.0008991   -0.0145340   -0.0342887
 O    2.8500155   -0.5929962   -0.4457556  0.00   -0.0139421   -0.0100183    0.0154284
 O    0.9671179   -1.8230348   -0.0947038  0.00    0.0177504    0.0020063   -0.0053163
 N    2.0280270    1.4277016    0.9317467  0.00    0.0067423    0.0248462    0.0382452
 H   -1.2840242   -1.6251648    0.7934027  0.00    0.0009439    0.0036447    0.0041217
 H   -2.8301452   -2.0290292   -0.0174980  0.00   -0.0033808    0.0027919   -0.0013971
 H   -2.8421826   -1.3940906    1.6560754  0.00   -0.0033668   -0.0007626   -0.0037446
 H   -0.8738398   -0.5225533   -1.4802117  0.00   -0.0011227   -0.0016281    0.0056651
 H   -1.5256377    1.0360074   -2.0108376  0.00    0.0053793    0.0069221   -0.0038407
 H    0.8095516    1.4053229   -1.5248084  0.00   -0.0049363   -0.0070002    0.0020065
 H   -0.1591283    2.2297852   -0.2938416  0.00   -0.0005920   -0.0073531    0.0005604
 H    0.2759022    0.2857773    1.2935373  0.00   -0.0034336    0.0130604   -0.0003498
 H    2.2766397    1.2341453    1.9078951  0.00   -0.0093230    0.0109091   -0.0084475